% Model:              n169_d38.75_R19.5_r7_rmaxerror0.06_external_axion_field_eigenvalues.mph
% Version:            COMSOL 6.1.0.282
% Date:               Apr 8 2024, 15:45
% Table:              Table 1 - Global Evaluation 1
% Eigenfrequency (GHz)                            C (1)                                             A (m^2)                                           Q (1)                                             Q_alt (rad)                                       Ploss (W/m)                                       Pexp (W/m)                                        Pohmic (W/m)
11.422909021958501+1.0599954671002458E-4i         7.049311378580542E-32                             0.17553450930077527                               53258.652926081144                                53881.377768221326                                0.5770285060148963                                1.3563058959659895E-51                            7.791345545468316E-28
11.433309315978603+1.0542998877716401E-4i         6.615357696368308E-32                             0.17553450930077527                               53605.11047832248                                 54221.783380191104                                0.5732234261396831                                1.2822583620699361E-51                            2.2619018152685222E-26
11.433436277826832+1.0545906747237676E-4i         1.8901540401445003E-31                            0.17553450930077527                               53588.241653546735                                54207.43437493521                                 0.5729885700307356                                3.6625835581754235E-51                            3.9971226301212364E-26
11.439413504945836+1.0589281577151819E-4i         6.391351102557692E-32                             0.17553450930077527                               53389.777847177975                                54013.61572242044                                 0.5744776247687479                                1.2345213588087122E-51                            1.7863034644294406E-26
11.440485392501202+1.0590078364520729E-4i         3.3200066984593836E-32                            0.17553450930077527                               53392.05308248974                                 54014.61253618967                                 0.5752910338704726                                6.4136328015714265E-52                            1.2897079818445105E-26
11.445650476816116+1.0824824123964531E-4i         4.505078363293214E-32                             0.17553450930077527                               52232.73310479867                                 52867.105155208315                                0.5872033617497481                                8.517843178163505E-52                             9.974466538131093E-27
11.446738970754215+1.081776444105573E-4i          3.1777236509689624E-31                            0.17553450930077527                               52273.55859631424                                 52906.63763016132                                 0.5871443513273923                                6.013454534532475E-51                             4.5327983106973543E-26
11.448770687234116+1.0859176097177931E-4i         7.520955520121857E-32                             0.17553450930077527                               52077.897540377424                                52714.230146020804                                0.5896049801662845                                1.418173544726824E-51                             2.203833867496377E-26
11.458888967409665+1.0834700548774434E-4i         5.039014092625352E-31                             0.17553450930077527                               52241.749991745746                                52880.006246715006                                0.5892532210772967                                9.540032638031436E-51                             7.254833625564585E-26
11.49606501900578+1.0772354515454989E-4i          1.3122749740603543E-32                            0.17553450930077527                               52729.32711845599                                 53358.610134906805                                0.5861821832439053                                2.5157666005991486E-52                            2.0643360983641214E-27
11.497234487031676+1.0772962829381485E-4i         9.056985774182245E-35                             0.17553450930077527                               52729.701449205495                                53361.02491190406                                 0.584348063617528                                 1.7365066336259102E-54                            7.756635580356866E-28
11.509199376060566+3.4876865581289775E-4i         0.21861075159788174                               0.17553450930077527                               22314.83143086431                                 16499.261653459314                                9.05116191558287E-6                               1.7756374702805243E-21                            3.5422582362353067E-19
11.516903065833912+3.4902063011927345E-4i         0.17645989443165241                               0.17553450930077527                               22305.74886479787                                 16498.38585390245                                 9.117108128931455E-6                              1.4336482029077057E-21                            2.736323061195718E-19
11.521077457143855+3.471832130983137E-4i          0.14211199135673977                               0.17553450930077527                               22336.65861897453                                 16591.715620321498                                9.08266911668817E-6                               1.1566077233897116E-21                            1.1462536236239407E-21
11.525661807633389+3.4783757824403147E-4i         0.03587732609100376                               0.17553450930077527                               22328.68849430732                                 16567.09150062543                                 9.110985456014518E-6                              2.9200696793066657E-22                            2.594592707196459E-19
11.52731051992446+3.4724791648726386E-4i          0.008409332649603361                              0.17553450930077527                               22347.64611824199                                 16597.598898632914                                9.102119821656486E-6                              6.851179874446934E-23                             1.9757531623330554E-19
11.529788801216155+3.463962161901615E-4i          0.020642967361902805                              0.17553450930077527                               22368.202579501813                                16641.9866378682                                  9.097955066317547E-6                              1.6837151710457735E-22                            1.1375347833953468E-19
11.530778536772829+3.4498724425055316E-4i         0.0023600907787794537                             0.17553450930077527                               22397.00505354837                                 16711.391127909614                                9.05570350948496E-6                               1.9276196590323332E-23                            4.188124630709382E-19
11.533174150042184+3.4435661730469465E-4i         0.02679800794394954                               0.17553450930077527                               22406.820697707022                                16745.474322803882                                9.028728802132937E-6                              2.1901590777561043E-22                            1.2194806940392155E-19
11.535970639193241+3.436151178918817E-4i          0.010145959925585295                              0.17553450930077527                               22432.98798580863                                 16785.68027285033                                 9.03847250528155E-6                               8.303830356846897E-23                             1.9503950621241762E-20
11.53888462810188+3.427954061905181E-4i           0.015909990708878746                              0.17553450930077527                               22442.211774657353                                16830.070657315635                                9.041640931931738E-6                              1.302997171963219E-22                             2.5812562594977135E-19
11.540759417474483+3.426268099574506E-4i          0.01202554432408801                               0.17553450930077527                               22447.352237035615                                16841.088368837874                                9.046532017315024E-6                              9.852542394669768E-23                             5.941812543253792E-20
11.5440589569778+3.4289428512212947E-4i           0.013489827313754506                              0.17553450930077527                               22441.241405666296                                16832.762359144206                                9.072675100307099E-6                              1.1052381408489342E-22                            2.3057123105288256E-20
11.549498465971663+3.407244036474748E-4i          0.008837435568024583                              0.17553450930077527                               22485.832606143962                                16947.946154615885                                9.01752569992171E-6                               7.258425423179016E-23                             1.9836395573221821E-19
11.55035138657799+1.0672754871646086E-4i          3.028388032483098E-28                             0.17553450930077527                               53497.346912578345                                54110.88673082628                                 0.5789309842302436                                5.918109852334117E-48                             1.682929136600496E-24
11.551855160502447+3.4125188305337114E-4i         0.0015323860869623557                             0.17553450930077527                               22486.055134539507                                16925.201625545284                                9.065722131780085E-6                              1.2588595131254849E-23                            3.8526594590590223E-20
11.552688841574675+3.407258712662826E-4i          2.3008602861217562E-4                             0.17553450930077527                               22492.167878316875                                16952.554868230083                                9.03997379812958E-6                               1.8908135263239323E-24                            7.127361927959335E-20
11.554647140070145+3.3973436227980816E-4i         1.6216092447643364E-4                             0.17553450930077527                               22512.22750792761                                 17004.91416242454                                 9.033468520899116E-6                              1.3340294827793648E-24                            2.0854401247071296E-18
11.557043930477143+3.394905679913956E-4i          1.0132547723169687E-4                             0.17553450930077527                               22518.350319193327                                17020.65602151137                                 9.015883496254572E-6                              8.339615982623536E-25                             2.1050295292046147E-18
11.561399201675387+3.394257191555592E-4i          0.008290634718710794                              0.17553450930077527                               22523.450067569753                                17030.323605954985                                9.045823702071478E-6                              6.827742796719844E-23                             9.9394800347026E-20
11.562615359220711+1.0790086569613719E-4i         2.9887462344279704E-28                            0.17553450930077527                               52957.866197431096                                53579.30758093245                                 0.5842657478777493                                5.787881866906266E-48                             1.3109564324078815E-24
11.562871806855433+1.0796005455128195E-4i         5.0199693198508885E-28                            0.17553450930077527                               52932.204283881394                                53551.120262773184                                0.5860029041620156                                9.716968915376119E-48                             1.7146775168404463E-24
11.563257770873848+1.0791020875726876E-4i         1.4186971086373946E-27                            0.17553450930077527                               52954.68592220678                                 53577.645130288925                                0.5861212546869771                                2.747377562528109E-47                             9.784381379882445E-25
11.563295424912694+3.368602717660614E-4i          0.0016221482790646962                             0.17553450930077527                               22576.582927980464                                17162.840830382916                                8.994195111138148E-6                              1.339289430122378E-23                             1.0830490432853515E-19
11.564578630229343+3.3827987814767196E-4i         0.0011988900239692298                             0.17553450930077527                               22551.802416059054                                17092.710767190518                                9.043758789442696E-6                              9.888592432621153E-24                             6.553503388073526E-19
11.568879509527408+3.3643943550310955E-4i         0.004370338611325266                              0.17553450930077527                               22578.25592079395                                 17192.60839029079                                 9.017435770343735E-6                              3.610279590441223E-23                             1.827484071053626E-19
11.569628074863077+3.3693126701422215E-4i         5.170328531174957E-4                              0.17553450930077527                               22574.235044560162                                17168.62179968179                                 9.030124781275268E-6                              4.270656488418809E-24                             2.768922478035924E-20
11.573286949550587+3.3714260885161216E-4i         0.004849593113075053                              0.17553450930077527                               22566.45837770256                                 17163.285393924696                                9.051398746922635E-6                              4.0056176192826127E-23                            9.190023225438148E-20
11.576352841555844+1.0731063181088071E-4i         1.0751707876419153E-28                            0.17553450930077527                               53325.34192193058                                 53938.016790057685                                0.5813597809465101                                2.0990699921628695E-48                            1.0363866100784588E-24
11.576914577655646+1.0932126268004916E-4i         4.620958496902694E-28                             0.17553450930077527                               52318.58637866293                                 52948.551625879176                                0.5926324225014675                                8.851664761156404E-48                             2.174683652176709E-24
11.577186611156273+3.345653414470409E-4i          0.005553848706578265                              0.17553450930077527                               22631.402301801714                                17301.331610544876                                8.995935207330498E-6                              4.602063461097807E-23                             2.83905854817785E-19
11.57726931656612+1.0951299575591932E-4i          9.03887274026447E-27                              0.17553450930077527                               52228.165009666314                                52857.46913330397                                 0.5940236788709892                                1.728499409293624E-46                             9.932321522453659E-24
11.579265527897386+3.3575041677843186E-4i         1.8474299037313295E-4                             0.17553450930077527                               22605.198673576324                                17243.358415153634                                9.028147731994427E-6                              1.5293305715447507E-24                            1.8587925075425563E-19
11.580670093394774+3.3409088350575385E-4i         0.0014158449481933841                             0.17553450930077527                               22639.653993725424                                17331.116071925593                                8.994273195596835E-6                              1.173986844315827E-23                             1.4590959419468424E-19
11.583101242578222+3.337389870220042E-4i          0.0018681242993255083                             0.17553450930077527                               22642.608818580502                                17353.032893094474                                8.998469513493257E-6                              1.549534125587557E-23                             2.572213496055797E-19
11.585841260355599+3.318621353387148E-4i          0.0029425064257730922                             0.17553450930077527                               22680.118383731213                                17455.304284436308                                8.962165315836817E-6                              2.4453125156214112E-23                            9.086066683346193E-20
11.587350374896571+1.0868231737756025E-4i         5.33069954810808E-29                              0.17553450930077527                               52682.409673251175                                53307.850151354556                                0.5913685120474721                                1.0291484765133278E-48                            2.2145755523968476E-25
11.587867206397133+1.0866264351727087E-4i         1.0137558843262496E-27                            0.17553450930077527                               52692.66453065237                                 53319.87998926659                                 0.5890319215543718                                1.957632280800367E-47                             3.318565480022047E-24
11.588192541109484+3.3282563226686525E-4i         0.0030905900635088105                             0.17553450930077527                               22664.86889200828                                 17408.30373942873                                 8.998723707136749E-6                              2.5671685133122472E-23                            7.811384720303411E-19
11.588382167627552+3.325015322377148E-4i          0.0010288261887912856                             0.17553450930077527                               22674.311263520813                                17425.557813289295                                9.014419014715922E-6                              8.549544630822417E-24                             2.9299013665976445E-18
11.59069151662291+3.303184937997794E-4i           0.0013985353779262734                             0.17553450930077527                               22707.53860899758                                 17544.220304209954                                8.937330027312642E-6                              1.1641177878108596E-23                            1.3554193096905214E-19
11.59484130184244+3.300380157640562E-4i           0.0044215811081830285                             0.17553450930077527                               22703.850470878348                                17565.417183026242                                8.96772205704753E-6                               3.6811709187571845E-23                            7.7761810390921E-20
11.59633678345352+3.308964746560987E-4i           0.003927890539396016                              0.17553450930077527                               22700.649358743693                                17522.104885028613                                9.000931731524479E-6                              3.270111316750061E-23                             4.233026549027864E-20
11.600238950538062+3.2865289247989736E-4i         8.709284133903934E-5                              0.17553450930077527                               22736.311107906808                                17647.661244237333                                8.950413857298269E-6                              7.264629292586552E-25                             2.1396013966938872E-20
11.60137529873758+3.287046188440524E-4i           4.460824032127413E-4                              0.17553450930077527                               22752.68867201713                                 17646.61255396559                                 8.974533028916206E-6                              3.723928656799202E-24                             3.5402291643330127E-19
11.602944494149343+3.261590480402125E-4i          3.834579570790902E-4                              0.17553450930077527                               22793.290202086584                                17786.748358109526                                8.914789375738384E-6                              3.2072812737638047E-24                            1.0611872274748245E-19
11.606665459667658+3.265513129435812E-4i          6.781441730609975E-6                              0.17553450930077527                               22783.702259770274                                17771.078968945596                                8.924229814784788E-6                              5.671498971944187E-26                             9.254955921131918E-19
11.608564244444977+3.248745818092224E-4i          7.56255158049734E-5                               0.17553450930077527                               22822.38906846733                                 17865.72329688199                                 8.901809081004347E-6                              6.33653770683773E-25                              2.847462517755047E-20
11.61040092487983+3.2651137244221203E-4i          1.238887677622734E-4                              0.17553450930077527                               22798.990689600734                                17778.97304940056                                 8.994456780653018E-6                              1.0371434553643606E-24                            6.948969177588825E-20
11.611732090754298+3.248149023929256E-4i          0.0010229787145291077                             0.17553450930077527                               22825.903740015343                                17873.882225391546                                8.941252490566884E-6                              8.575029951011811E-24                             2.4783122474423284E-19
