% Model:              n169_d38.75_R19.5_r7_rmaxerror0.015_external_axion_field.mph
% Version:            COMSOL 6.1.0.282
% Date:               Apr 9 2024, 09:28
% Table:              Table 1 - Global Evaluation 1
% freq (GHz)             C (1)                    A (m^2)                  Q (1)                    Q_alt (rad)              Ploss (W/m)              Pexp (W/m)               Pohmic (W/m)
11.5                     0.7154595078423353       0.17553057315091647      22178.57062290024        16293.298653214955       8.543061592911305E-25    5.7709960094615985E-21   1.1607735982619788E-24
11.500075                0.7152325289888982       0.17553057315091647      22178.778659032112       16293.497698261714       8.606214522993223E-25    5.7692569068344695E-21   1.1693593713878843E-24
11.500150000000001       0.7150044854184706       0.17553057315091647      22178.986723764177       16293.69673107469        8.670083427141488E-25    5.767509165694049E-21    1.1780425034414042E-24
11.500225                0.7147753690007844       0.17553057315091647      22179.19481723212        16293.895751877912       8.73467927197096E-25     5.7657527200752254E-21   1.1868244858195096E-24
11.500300000000001       0.7145451715208563       0.17553057315091647      22179.402939573527       16294.094760900232       8.800013235959158E-25    5.763987503325714E-21    1.195706838732682E-24
11.500375                0.7143138846778222       0.17553057315091647      22179.611090927723       16294.293758375301       8.86609671439211E-25     5.7622134480965744E-21   1.20469111187756E-24
11.50045                 0.7140815000838957       0.17553057315091647      22179.819271436063       16294.492744541914       8.932941324445944E-25    5.760430486333811E-21    1.213778885128066E-24
11.500525000000001       0.7138480092631411       0.17553057315091647      22180.027481241646       16294.69171964374        9.000558910404397E-25    5.758638549268353E-21    1.2229717692450013E-24
11.5006                  0.7136134036503973       0.17553057315091647      22180.235720489713       16294.890683929745       9.068961549022054E-25    5.7568375674074084E-21   1.2322714066054777E-24
11.500675000000001       0.7133776745900516       0.17553057315091647      22180.44398932735        16295.089637654171       9.138161555042563E-25    5.755027470524448E-21    1.2416794719534124E-24
11.50075                 0.7131408133348855       0.17553057315091647      22180.652287903766       16295.288581076537       9.208171486858224E-25    5.753208187649891E-21    1.2511976731692646E-24
11.500825                0.7129028110448491       0.17553057315091647      22180.860616370202       16295.487514461907       9.279004152333295E-25    5.75137964706114E-21     1.2608277520620259E-24
11.500900000000001       0.7126636587858106       0.17553057315091647      22181.068974879967       16295.686438080873       9.350672614801085E-25    5.749541776272446E-21    1.27057148518485E-24
11.500975                0.7124233475283582       0.17553057315091647      22181.277363588495       16295.885352209743       9.423190199208963E-25    5.74769450202518E-21     1.2804306846708085E-24
11.501050000000001       0.7121818681464841       0.17553057315091647      22181.48578265335        16296.08425713061        9.496570498456699E-25    5.7458377502771605E-21   1.290407199094928E-24
11.501125                0.7119392114163181       0.17553057315091647      22181.69423223447        16296.283153131457       9.570827379900554E-25    5.743971446192436E-21    1.300502914358781E-24
11.5012                  0.7116953680148203       0.17553057315091647      22181.902712493862       16296.482040506287       9.645974992054909E-25    5.742095514130596E-21    1.3107197546019374E-24
11.501275000000001       0.7114503285184286       0.17553057315091647      22182.11122359584        16296.680919555274       9.722027771477154E-25    5.740209877635839E-21    1.3210596831383402E-24
11.50135                 0.7112040834017622       0.17553057315091647      22182.31976570716        16296.879790584751       9.799000449845823E-25    5.7383144594264996E-21   1.3315247034189714E-24
11.501425000000001       0.7109566230361916       0.17553057315091647      22182.528338996744       16297.078653907549       9.876908061259332E-25    5.7364091813833506E-21   1.3421168600245005E-24
11.5015                  0.710707937688465        0.17553057315091647      22182.736943636115       16297.277509842841       9.95576594973747E-25     5.73449396453858E-21     1.3528382396855452E-24
11.501575                0.7104580175193118       0.17553057315091647      22182.94557979907        16297.476358716527       1.0035589776926589E-24   5.732568729064359E-21    1.3636909723305967E-24
11.501650000000001       0.7102068525819785       0.17553057315091647      22183.154247662034       16297.675200861233       1.011639553006289E-24    5.730633394261046E-21    1.3746772321690743E-24
11.501725                0.709954432820751        0.17553057315091647      22183.362947403893       16297.874036616453       1.019819953014254E-24    5.728687878545159E-21    1.3857992388025012E-24
11.501800000000001       0.70970074806952         0.17553057315091647      22183.571679206147       16298.072866328679       1.02810184403348E-24     5.726732099437755E-21    1.3970592583687299E-24
11.501875                0.7094457880502485       0.17553057315091647      22183.78044325286        16298.271690351638       1.0364869274653636E-24   5.724765973551979E-21    1.408459604721321E-24
11.50195                 0.7091895423714045       0.17553057315091647      22183.989239730858       16298.47050904617        1.0449769406888368E-24   5.722789416580396E-21    1.4200026406441677E-24
11.502025000000001       0.7089320005264378       0.17553057315091647      22184.198068829566       16298.669322780666       1.0535736579791843E-24   5.720802343282578E-21    1.43169077910112E-24
11.5021                  0.708673151892214        0.17553057315091647      22184.406930741254       16298.8681319311         1.0622788914538715E-24   5.7188046674724515E-21   1.4435264845223694E-24
11.502175000000001       0.7084129857273288       0.17553057315091647      22184.61582566102        16299.06693688113        1.0710944920504702E-24   5.716796302004619E-21    1.4555122741344794E-24
11.50225                 0.7081514911705473       0.17553057315091647      22184.824753786772       16299.265738022266       1.0800223505278959E-24   5.714777158761665E-21    1.4676507193221124E-24
11.502325                0.7078886572390877       0.17553057315091647      22185.033715319398       16299.46453575407        1.0890643985050195E-24   5.712747148640286E-21    1.4799444470405963E-24
11.502400000000002       0.7076244728269977       0.17553057315091647      22185.242710462662       16299.663330484298       1.0982226095241613E-24   5.7107061815380695E-21   1.4923961412623391E-24
11.502475                0.7073589267033258       0.17553057315091647      22185.451739423486       16299.86212262906        1.1074990001541488E-24   5.708654166338718E-21    1.5050085444770472E-24
11.502550000000001       0.7070920075104653       0.17553057315091647      22185.660802411734       16300.060912612855       1.1168956311210861E-24   5.70659101089856E-21     1.5177844592296197E-24
11.502625                0.7068237037623795       0.17553057315091647      22185.86989964045        16300.259700869026       1.1264146084771359E-24   5.704516622032192E-21    1.5307267497097579E-24
11.5027                  0.7065540038427014       0.17553057315091647      22186.079031325917       16300.4584878397         1.1360580848070817E-24   5.702430905497071E-21    1.5438383433929723E-24
11.502775000000002       0.7062828960030065       0.17553057315091647      22186.288197687674       16300.65727397593        1.1458282604681137E-24   5.700333765979497E-21    1.557122232726738E-24
11.50285                 0.7060103683608736       0.17553057315091647      22186.497398948442       16300.856059738095       1.1557273848724895E-24   5.69822510707884E-21     1.5705814768749853E-24
11.502925000000001       0.7057364088980101       0.17553057315091647      22186.70663533445        16301.054845595883       1.165757757808349E-24    5.696104831292419E-21    1.5842192035144918E-24
11.503                   0.7054610054583464       0.17553057315091647      22186.915907075247       16301.253632028593       1.1759217308033867E-24   5.693972839999966E-21    1.5980386106895449E-24
11.503075                0.7051841457460185       0.17553057315091647      22187.12521440398        16301.452419525212       1.1862217085311083E-24   5.6918290334473305E-21   1.6120429687245281E-24
11.503150000000002       0.7049058173233925       0.17553057315091647      22187.334557557242       16301.651208584743       1.1966601502630947E-24   5.689673310730402E-21    1.6262356221990765E-24
11.503225                0.7046260076090696       0.17553057315091647      22187.543936775408       16301.849999716293       1.2072395713653292E-24   5.687505569778985E-21    1.6406199919831814E-24
11.503300000000001       0.7043447038757713       0.17553057315091647      22187.753352302283       16302.048793439319       1.2179625448457163E-24   5.685325707339551E-21    1.6551995773418815E-24
11.503375                0.704061893248261        0.17553057315091647      22187.962804385737       16302.247590283872       1.2288317029500623E-24   5.6831336189585265E-21   1.669977958105905E-24
11.50345                 0.7037775627012364       0.17553057315091647      22188.17229327723        16302.446390790687       1.2398497388090972E-24   5.680929198965055E-21    1.6849587969117007E-24
11.503525000000002       0.7034916990570775       0.17553057315091647      22188.381819232232       16302.645195511579       1.251019408142273E-24    5.6787123404528194E-21   1.700145841518708E-24
11.5036                  0.7032042889837429       0.17553057315091647      22188.591382510138       16302.84400500951        1.2623435310129327E-24   5.6764829352629444E-21   1.7155429271964835E-24
11.503675000000001       0.702915318992381        0.17553057315091647      22188.800983374436       16303.042819858854       1.2738249936474724E-24   5.674240873964646E-21    1.7311539791988673E-24
11.50375                 0.7026247754352396       0.17553057315091647      22189.0106220927         16303.24164064566        1.2854667503064945E-24   5.671986045838248E-21    1.7469830153088587E-24
11.503825                0.7023326445031322       0.17553057315091647      22189.22029893672        16303.440467967832       1.2972718252270762E-24   5.669718338854656E-21    1.7630341484802207E-24
11.503900000000002       0.7020389122232268       0.17553057315091647      22189.43001418255        16303.639302435513       1.3092433146232254E-24   5.667437639657405E-21    1.7793115895582002E-24
11.503975                0.7017435644565252       0.17553057315091647      22189.63976811059        16303.83814467105        1.3213843887574736E-24   5.665143833542223E-21    1.795819650097037E-24
11.504050000000001       0.701446586895525        0.17553057315091647      22189.849561005653       16304.036995309558       1.3336982940796497E-24   5.6628368044380614E-21   1.812562745268798E-24
11.504125                0.7011479650616251       0.17553057315091647      22190.0593931572         16304.235854998882       1.346188355441003E-24    5.660516434886085E-21    1.8295453968747447E-24
11.5042                  0.7008476843026117       0.17553057315091647      22190.26926485919        16304.434724400171       1.3588579783826873E-24   5.658182606019236E-21    1.84677223645778E-24
11.504275000000002       0.7005457297901643       0.17553057315091647      22190.479176410252       16304.633604187906       1.3717106514993063E-24   5.65583519754201E-21     1.864248008517018E-24
11.50435                 0.7002420865170956       0.17553057315091647      22190.689128113954       16304.832495050234       1.3847499488906862E-24   5.653474087708129E-21    1.881977573842353E-24
11.504425000000001       0.6999367392947876       0.17553057315091647      22190.89912027856        16305.03139768921        1.3979795326917987E-24   5.651099153299649E-21    1.8999659129552898E-24
11.5045                  0.6996296727504061       0.17553057315091647      22191.109153217472       16305.230312821224       1.4114031556946062E-24   5.648710269604471E-21    1.9182181296748287E-24
11.504575                0.699320871324165        0.17553057315091647      22191.319227249016       16305.429241177182       1.4250246640601631E-24   5.646307310394058E-21    1.936739454806057E-24
11.504650000000002       0.69901031926647         0.17553057315091647      22191.529342696715       16305.628183502782       1.4388480001276206E-24   5.64389014790033E-21     1.955535249960595E-24
11.504725                0.6986980006351146       0.17553057315091647      22191.73949988947        16305.827140558833       1.4528772053170662E-24   5.641458652792925E-21    1.9746110115046287E-24
11.504800000000001       0.6983838992922867       0.17553057315091647      22191.949699161418       16306.026113121668       1.4671164231434913E-24   5.6390126941548725E-21   1.9939723746580756E-24
11.504875                0.6980679989016445       0.17553057315091647      22192.15994085225        16306.225101983371       1.4815699023316273E-24   5.636552139458919E-21    2.0136251177309587E-24
11.504950000000001       0.6977502829252884       0.17553057315091647      22192.37022530711        16306.424107952          1.4962420000443575E-24   5.6340768545429286E-21   2.0335751665142513E-24
11.505025                0.6974307346206579       0.17553057315091647      22192.580552876956       16306.623131852157       1.5111371852288496E-24   5.6315867035847685E-21   2.0538285988308086E-24
11.5051                  0.6971093370374118       0.17553057315091647      22192.79092391858        16306.822174525149       1.526260042082721E-24    5.6290815490769855E-21   2.074391649249586E-24
11.505175000000001       0.6967860730142117       0.17553057315091647      22193.00133879447        16307.021236829363       1.5416152736464335E-24   5.626561251800656E-21    2.0952707139714866E-24
11.50525                 0.6964609251754956       0.17553057315091647      22193.2117978733         16307.22031964075        1.5572077055259647E-24   5.624025670799309E-21    2.1164723558924585E-24
11.505325000000001       0.6961338759281632       0.17553057315091647      22193.422301529936       16307.419423852956       1.5730422897553799E-24   5.6214746633520146E-21   2.1380033098568106E-24
11.5054                  0.6958049074582211       0.17553057315091647      22193.632850145288       16307.618550377909       1.5891241087978222E-24   5.618908084946106E-21    2.1598704880988116E-24
11.505475                0.6954740017272762       0.17553057315091647      22193.843444106886       16307.817700146014       1.605458379701258E-24    5.616325789248855E-21    2.1820809858947707E-24
11.505550000000001       0.6951411404691237       0.17553057315091647      22194.054083808718       16308.016874106765       1.6220504584037203E-24   5.613727628079718E-21    2.204642087418435E-24
11.505625                0.6948063051861574       0.17553057315091647      22194.264769651247       16308.216073228894       1.6389058442026504E-24   5.6111134513812034E-21   2.227561271819556E-24
11.505700000000001       0.6944694771456974       0.17553057315091647      22194.47550204188        16308.41529850093        1.6560301843957747E-24   5.608483107189163E-21    2.2508462195357907E-24
11.505775                0.6941306373763737       0.17553057315091647      22194.686281394956       16308.614550931665       1.6734292790915644E-24   5.6058364416034256E-21   2.274504818835248E-24
11.50585                 0.6937897666642818       0.17553057315091647      22194.897108131747       16308.81383155039        1.6911090862117205E-24   5.603173298756586E-21    2.2985451726201266E-24
11.505925000000001       0.6934468455492472       0.17553057315091647      22195.10798268079        16309.013141407431       1.7090757266775107E-24   5.600493520783741E-21    2.322975605480529E-24
11.506                   0.6931018543207954       0.17553057315091647      22195.31890547786        16309.212481574683       1.7273354898039627E-24   5.597796947789778E-21    2.3478046710308414E-24
11.506075000000001       0.6927547730142817       0.17553057315091647      22195.529876966375       16309.411853145917       1.7458948388975776E-24   5.5950834178180405E-21   2.3730411595230338E-24
11.50615                 0.6924055814067266       0.17553057315091647      22195.740897597254       16309.611257237271       1.7647604170779775E-24   5.5923527668164795E-21   2.3986941057644186E-24
11.506225                0.6920542590128468       0.17553057315091647      22195.95196782924        16309.810694987824       1.7839390533203803E-24   5.589604828605496E-21    2.4247727973358513E-24
11.506300000000001       0.6917007850806491       0.17553057315091647      22196.16308812904        16310.010167560014       1.8034377687463238E-24   5.5868394348422116E-21   2.4512867831474632E-24
11.506375                0.691345138587315        0.17553057315091647      22196.37425897144        16310.209676140068       1.8232637831551878E-24   5.584056414987062E-21    2.4782458823219972E-24
11.506450000000001       0.6909872982346885       0.17553057315091647      22196.58548083949        16310.40922193864        1.8434245218258862E-24   5.581255596267228E-21    2.505660193445499E-24
11.506525                0.69062724244491         0.17553057315091647      22196.79675422473        16310.608806191303       1.8639276225811037E-24   5.5784368036412146E-21   2.5335401041751627E-24
11.5066                  0.6902649493558696       0.17553057315091647      22197.008079627223       16310.808430159002       1.884780943145213E-24    5.575599859761941E-21    2.56189630124655E-24
11.506675000000001       0.689900396816499        0.17553057315091647      22197.219457555893       16311.00809512869        1.9059925688011626E-24   5.5727445849386194E-21   2.5907397808874534E-24
11.50675                 0.689533562382157        0.17553057315091647      22197.430888528685       16311.207802413803       1.927570820352076E-24    5.569870797099286E-21    2.6200818596461764E-24
11.506825000000001       0.6891644233097818       0.17553057315091647      22197.64237307257        16311.40755335492        1.9495242624189803E-24   5.5669783117514655E-21   2.6499341856769895E-24
11.5069                  0.6887929565529233       0.17553057315091647      22197.853911723945       16311.60734932029        1.9718617120793076E-24   5.564066941941914E-21    2.6803087504890272E-24
11.506975                0.6884191387568604       0.17553057315091647      22198.0655050287         16311.807191706488       1.9945922478620337E-24   5.561136498216997E-21    2.7112179011802687E-24
11.507050000000001       0.6880429462534049       0.17553057315091647      22198.277153542465       16312.007081938937       2.0177252191218623E-24   5.558186788580544E-21    2.7426743531870204E-24
11.507125                0.6876643550557584       0.17553057315091647      22198.488857830926       16312.207021472646       2.0412702558097727E-24   5.55521761845218E-21     2.7746912035725053E-24
11.507200000000001       0.6872833408531858       0.17553057315091647      22198.70061846982        16312.407011792713       2.0652372786511436E-24   5.552228790624049E-21    2.8072819448697393E-24
11.507275                0.6868998790056501       0.17553057315091647      22198.91243604515        16312.607054415192       2.089636509765273E-24    5.5492201052173145E-21   2.840460479524789E-24
11.50735                 0.6865139445382478       0.17553057315091647      22199.124311153686       16312.807150887558       2.1144784837349544E-24   5.546191359637088E-21    2.8742411349520883E-24
11.507425000000001       0.686125512135655        0.17553057315091647      22199.336244402875       16313.00730278947        2.139774059155236E-24    5.543142348527303E-21    2.9086386792415075E-24
11.5075                  0.6857345561363208       0.17553057315091647      22199.548236411232       16313.207511733564       2.165534430687044E-24    5.54007286372367E-21     2.9436683375520467E-24
11.507575000000001       0.6853410505266987       0.17553057315091647      22199.760287808564       16313.407779366064       2.1917711416273692E-24   5.536982694206866E-21    2.979345809208112E-24
11.50765                 0.6849449689351802       0.17553057315091647      22199.9723992361         16313.608107367576       2.2184960970487944E-24   5.533871626053327E-21    3.0156872855700987E-24
11.507725                0.684546284626118        0.17553057315091647      22200.184571346843       16313.808497453832       2.245721577500502E-24    5.530739442386782E-21    3.0527094686686628E-24
11.507800000000001       0.6841449704935637       0.17553057315091647      22200.396804805965       16314.008951376503       2.273460253334853E-24    5.527585923327494E-21    3.090429590689802E-24
11.507875                0.6837409990549529       0.17553057315091647      22200.60910029053        16314.209470923943       2.3017251996670913E-24   5.5244108459409194E-21   3.128865434320969E-24
11.507950000000001       0.6833343424446364       0.17553057315091647      22200.821458490504       16314.410057921988       2.3305299120141767E-24   5.5212139841854155E-21   3.1680353540209563E-24
11.508025                0.6829249724072448       0.17553057315091647      22201.03388010847        16314.610714234961       2.359888322643901E-24    5.517995108858291E-21    3.2079582982556987E-24
11.5081                  0.6825128602910903       0.17553057315091647      22201.246365859923       16314.811441766285       2.3898148176616306E-24   5.514753987542285E-21    3.248653832737348E-24
11.508175000000001       0.6820979770411172       0.17553057315091647      22201.458916473974       16315.012242459565       2.420324254899768E-24    5.511490384548503E-21    3.2901421647551104E-24
11.50825                 0.6816802931920479       0.17553057315091647      22201.67153269326        16315.213118299376       2.45143198261741E-24     5.508204060860721E-21    3.332444168607992E-24
11.508325000000001       0.6812597788611228       0.17553057315091647      22201.88421527427        16315.414071312194       2.4831538590843052E-24   5.504894774076511E-21    3.375581412240197E-24
11.5084                  0.6808364037409245       0.17553057315091647      22202.096964987908       16315.61510356737        2.515506273072644E-24    5.5015622783491055E-21   3.419576185111328E-24
11.508475                0.6804101370917844       0.17553057315091647      22202.30978261943        16315.81621717815        2.5485061653297754E-24   5.498206324325705E-21    3.464451527400611E-24
11.508550000000001       0.6799809477342557       0.17553057315091647      22202.522668969097       16316.017414302569       2.5821710510594196E-24   5.49482665908652E-21     3.510231260582834E-24
11.508625                0.6795488040413392       0.17553057315091647      22202.735624852274       16316.2186971445         2.6165190434862208E-24   5.491423026081653E-21    3.556940019477603E-24
11.508700000000001       0.6791136739305424       0.17553057315091647      22202.948651100014       16316.420067954738       2.6515688785519622E-24   5.487995165066747E-21    3.604603285837825E-24
11.508775                0.6786755248557399       0.17553057315091647      22203.161748558967       16316.621529032043       2.687339940815068E-24    5.484542812036871E-21    3.653247423574623E-24
11.50885                 0.6782343237990021       0.17553057315091647      22203.3749180923         16316.823082724268       2.723852290610467E-24    5.481065699160365E-21    3.70289971569657E-24
11.508925000000001       0.6777900372620309       0.17553057315091647      22203.588160579602       16317.024731429337       2.761126692551208E-24    5.477563554709275E-21    3.753588403073613E-24
11.509                   0.6773426312576558       0.17553057315091647      22203.80147691746        16317.226477596674       2.799184645438601E-24    5.47403610299042E-21     3.805342725116838E-24
11.509075000000001       0.6768920713009001       0.17553057315091647      22204.014868019804       16317.428323728107       2.838048413667776E-24    5.4704830642729316E-21   3.858192962492001E-24
11.50915                 0.6764383224000458       0.17553057315091647      22204.228334818257       16317.630272379285       2.8777410602149336E-24   5.4669041547157605E-21   3.912170481984292E-24
11.509225                0.6759813490474615       0.17553057315091647      22204.441878262656       16317.832326160793       2.9182864812843853E-24   5.463299086293314E-21    3.967307783620512E-24
11.509300000000001       0.6755211152101368       0.17553057315091647      22204.65549932127        16318.03448773946        2.9597094427390637E-24   5.459667566718633E-21    4.0236385502168756E-24
11.509375                0.6750575843201789       0.17553057315091647      22204.869198981407       16318.23675983975        3.0020356183851176E-24   5.4560092993663564E-21   4.0811976994484584E-24
11.509450000000001       0.6745907192648853       0.17553057315091647      22205.08297824966        16318.439145244998       3.0452916302561765E-24   5.452323983192157E-21    4.140021438638374E-24
11.509525                0.6741204823768345       0.17553057315091647      22205.29683815258        16318.641646798793       3.0895050909829744E-24   5.448611312652411E-21    4.200147322383127E-24
11.5096                  0.6736468354235717       0.17553057315091647      22205.510779736873       16318.844267406497       3.1347046483971503E-24   5.444870977620485E-21    4.26161431321658E-24
11.509675000000001       0.6731697395971677       0.17553057315091647      22205.72480407015        16319.047010036627       3.1809200324976156E-24   5.441102663302119E-21    4.3244628454871765E-24
11.50975                 0.6726891555034844       0.17553057315091647      22205.93891224103        16319.249877722275       3.228182104914696E-24    5.4373060501482586E-21   4.388734892632241E-24
11.509825000000001       0.6722050431513308       0.17553057315091647      22206.153105360052       16319.452873562755       3.276522911036311E-24    5.4334808137672E-21      4.454474038072912E-24
11.5099                  0.6717173619411234       0.17553057315091647      22206.367384559802       16319.656000725094       3.325975734963726E-24    5.4296266248325246E-21   4.5217255499573E-24
11.509975                0.6712260706536218       0.17553057315091647      22206.58175099581        16319.859262445683       3.376575157455386E-24    5.425743148991825E-21    4.590536459967845E-24
11.510050000000001       0.6707311274380885       0.17553057315091647      22206.796205846567       16320.062662031929       3.428357117068235E-24    5.421830046770541E-21    4.6609556464771566E-24
11.510125                0.6702324898004072       0.17553057315091647      22207.010750314683       16320.266202863855       3.481358974686212E-24    5.4178869734757336E-21   4.733033922310895E-24
11.510200000000001       0.6697301145908771       0.17553057315091647      22207.225385626913       16320.469888396023       3.535619581649199E-24    5.4139135790969534E-21   4.806824127407281E-24
11.510275                0.6692239579916344       0.17553057315091647      22207.44011303504        16320.673722159141       3.591179351729754E-24    5.4099095082042875E-21   4.8823812267099585E-24
11.51035                 0.6687139755039246       0.17553057315091647      22207.654933816262       16320.877707761994       3.648080337192264E-24    5.405874399845074E-21    4.959762413613038E-24
11.510425000000001       0.6682001219349628       0.17553057315091647      22207.86984927411        16321.081848893306       3.706366309209318E-24    5.401807887437402E-21    5.039027219332392E-24
11.5105                  0.667682351384567        0.17553057315091647      22208.084860738705       16321.286149323754       3.766082842917423E-24    5.397709598661597E-21    5.1202376285866E-24
11.510575000000001       0.6671606172314818       0.17553057315091647      22208.29996956755        16321.490612907668       3.8272774074251376E-24   5.393579155349329E-21    5.2034582020134595E-24
11.51065                 0.6666348721193108       0.17553057315091647      22208.515177146237       16321.69524358551        3.8899994611125525E-24   5.3894161733695254E-21   5.288756205783156E-24
11.510725                0.6661050679421571       0.17553057315091647      22208.730484889085       16321.900045385644       3.954300552553261E-24    5.385220262511875E-21    5.376201748858239E-24
11.510800000000001       0.6655711558300403       0.17553057315091647      22208.945894239754       16322.10502242656        4.020234427474949E-24    5.380991026368532E-21    5.465867928466473E-24
11.510875                0.6650330861337153       0.17553057315091647      22209.161406671978       16322.3101789192         4.0878571421630856E-24   5.376728062210984E-21    5.557830984336736E-24
11.510950000000001       0.6644908084094094       0.17553057315091647      22209.377023690537       16322.515519169025       4.157227183732582E-24    5.3724309608662994E-21   5.6521704622756945E-24
11.511025                0.6639442714030349       0.17553057315091647      22209.592746831488       16322.72104757857        4.228405597786595E-24    5.368099306588952E-21    5.748969387791407E-24
11.5111                  0.6633934230339528       0.17553057315091647      22209.808577663483       16322.926768649728       4.301456123959656E-24    5.3637326769292555E-21   5.848314450440115E-24