% Model:              n7_d38_R19.5_r7_h300_lrod300_x10.00_simplified_model_full_pillbox.mph
% Version:            COMSOL 6.1.0.282
% Date:               Mar 8 2024, 15:51
% Table:              Evaluation Group 1 - 
% Eigenfrequency (GHz)                            Form Factor (1)                                   Quality Factor (rad)                              Active Volume (m^3)
7.305891589170082+1.1974999180318231E-4i          4.4475634008936927E-10                            30504.30262870759                                 0.0021648084998556185
7.31393957800426+1.7105081547411037E-4i           1.4214008344643563E-9                             21378.95592620554                                 0.0021648084998556185
7.317746462119184+1.28954280135858E-4i            2.0401882937000818E-8                             28372.94053370179                                 0.0021648084998556185
7.323635277062307+1.2805710722158363E-4i          8.903807651927315E-12                             28594.716376304226                                0.0021648084998556185
7.3306686983024205+1.5476918420624156E-4i         3.3138883428691495E-10                            23682.102367771276                                0.0021648084998556185
7.333214344563522+1.4669486519000086E-4i          2.2773314227836545E-10                            24994.3063782479                                  0.0021648084998556185
7.355106634027287+1.6684495915065864E-4i          3.2116588914691196E-8                             22041.250770687544                                0.0021648084998556185
7.366704468118172+1.4662906168207737E-4i          5.9364249050437735E-9                             25119.714967308002                                0.0021648084998556185
7.376494256358376+1.9327364653326016E-4i          7.984314187612949E-8                              19082.537137595045                                0.0021648084998556185
7.398565852188447+1.7184379049904779E-4i          1.5433340043124594E-8                             21526.51296157458                                 0.0021648084998556185
7.414325897373323+1.6308340122115015E-4i          2.031292313037893E-7                              22731.202126975073                                0.0021648084998556185
7.417740634840397+1.4696157270307553E-4i          5.68948962659566E-10                              25236.509639190852                                0.0021648084998556185
7.424346692508074+1.2166452606827569E-4i          2.9964975258942598E-9                             30511.052603936256                                0.0021648084998556185
7.4292686348012325+1.3014504041119725E-4i         2.2892192131227776E-8                             28541.767169949035                                0.0021648084998556185
7.4648599496738+3.17838560628359E-4i              5.024876109458396E-8                              11742.66293683049                                 0.0021648084998556185
7.466398827671114+3.151656575995731E-4i           3.262452551438121E-8                              11844.697441262984                                0.0021648084998556185
7.467855717817321+3.1606762568259743E-4i          1.4426140129320664E-7                             11813.199284929864                                0.0021648084998556185
7.470888398891017+3.034067721509067E-4i           4.0074440701909125E-8                             12311.17054186262                                 0.0021648084998556185
7.471806918183324+3.077493993667708E-4i           1.4853015006952508E-7                             12138.933854888686                                0.0021648084998556185
7.473899523385846+3.016233596928974E-4i           1.6516499208898096E-6                             12388.957438368681                                0.0021648084998556185
7.481134246300799+1.3311938744741262E-4i          5.6600686180611437E-8                             28098.841498289217                                0.0021648084998556185
7.482257592415091+1.5579456332089154E-4i          6.443088733378978E-11                             24012.71792742371                                 0.0021648084998556185
7.483311149791015+2.5647764280568316E-4i          5.097292433501114E-8                              14588.122777856128                                0.0021648084998556185
7.484245311471005+2.398257951062134E-4i           2.6073216676571276E-7                             15603.003618181647                                0.0021648084998556185
7.4849872330321485+2.59999508436751E-4i           5.804279105704962E-8                              14393.733455759146                                0.0021648084998556185
7.485931573341619+2.0687584677643047E-4i          1.6554213507786888E-6                             18092.311941798554                                0.0021648084998556185
7.492638707972499+3.097265703957031E-4i           5.851463932367539E-8                              12095.069830399952                                0.0021648084998556185
7.492821582709357+3.1138018295423037E-4i          4.897118292947053E-7                              12031.128867361005                                0.0021648084998556185
7.493410696577108+3.0625067004417763E-4i          8.919956015374067E-10                             12233.613166601945                                0.0021648084998556185
7.49905620813787+1.3471944920655907E-4i           3.420749839812094E-7                              27831.621697278635                                0.0021648084998556185
7.50945821986404+1.4850642317882994E-4i           1.2540756343747745E-6                             25282.777521404467                                0.0021648084998556185
7.515651047013808+1.7294323850607915E-4i          9.82100649384628E-8                               21728.164015997336                                0.0021648084998556185
7.521670916244649+1.4469190034299364E-4i          6.564112931093563E-6                              25991.524742883128                                0.0021648084998556185
7.525922333324581+1.3519931604129203E-4i          9.391128576112782E-8                              27832.193746127938                                0.0021648084998556185
7.533979441014502+1.3591264254727585E-4i          5.280240640485113E-6                              27715.75677423228                                 0.0021648084998556185
7.534552580933332+1.4724357742461317E-4i          6.859657871157833E-8                              25584.83509336142                                 0.0021648084998556185
7.544369064053211+1.4053216845752407E-4i          8.07314943334531E-5                               26841.64244892234                                 0.0021648084998556185
7.551781275444719+1.5405640398034342E-4i          0.40542675141077616                               24509.292933505527                                0.0021648084998556185
7.554428457520795+1.5882662824534075E-4i          2.9218047854127286E-4                             23781.495385966125                                0.0021648084998556185
7.555054564177032+1.533457702102854E-4i           0.0011054464576853277                             24633.548824099475                                0.0021648084998556185
7.568359674194313+1.5867688104074279E-4i          1.9959141372690565E-5                             23847.83654042235                                 0.0021648084998556185
7.572768963894493+1.3342956115798717E-4i          3.521032396158693E-8                              28376.90179376634                                 0.0021648084998556185
7.5741052363747166+1.2384450467249763E-4i         3.653824593067685E-10                             30578.591115255476                                0.0021648084998556185
7.575402867100732+1.356118084863384E-4i           5.509719840896509E-7                              27929.96739796945                                 0.0021648084998556185
7.588128943701853+1.422467489293198E-4i           0.008602580761361134                              26671.91339360567                                 0.0021648084998556185
7.596677758901449+2.0811352326354198E-4i          1.3630317783107001E-6                             18250.780927619253                                0.0021648084998556185
7.604735128340052+1.4629554963222543E-4i          8.950991077814938E-7                              25990.495183408737                                0.0021648084998556185
7.605059290905948+1.2879603383279093E-4i          3.2882990795405797E-9                             29523.149818777016                                0.0021648084998556185
7.608199538652292+1.6191166125107081E-4i          6.556870331298671E-7                              23494.404789935394                                0.0021648084998556185
7.617558269979822+1.5925351398694533E-4i          2.69623912659626E-6                               23915.9470294957                                  0.0021648084998556185
7.622070380319445+1.3406400697130557E-4i          1.3877539348169018E-10                            28426.47503693398                                 0.0021648084998556185
7.653691481210165+1.4736816167410945E-4i          4.552230239115265E-7                              25967.413835411786                                0.0021648084998556185
7.656130181083407+1.3007872079723591E-4i          2.9513099681093968E-8                             29428.317833235233                                0.0021648084998556185
7.657056950004632+1.3337219658519366E-4i          2.8342547937357383E-6                             28705.08049938721                                 0.0021648084998556185
7.657139353405298+1.3569945979154347E-4i          7.030605847053805E-7                              28213.07978055545                                 0.0021648084998556185
7.663402825967793+1.5908618297843298E-4i          5.304874214091029E-9                              24085.180495354674                                0.0021648084998556185
7.663544802514218+1.7122875409506243E-4i          2.6008853142717477E-10                            22377.575594296562                                0.0021648084998556185
7.6731763087690865+1.3711427754717134E-4i         1.7593105657927922E-7                             27980.43207648812                                 0.0021648084998556185
7.682157109856292+1.4784691831543013E-4i          1.0416422279403043E-9                             25979.57384781803                                 0.0021648084998556185
7.686203693937524+1.253834343509352E-4i           1.2972780978654E-4                                30650.328552490842                                0.0021648084998556185
