% Model:              n169_R19.5_d38_r7_x10.4_y0_ideal.mph
% Version:            COMSOL 6.1.0.282
% Date:               Dec 8 2023, 10:19
% Table:              Table 1 - Global Evaluation 1
% Eigenfrequency (GHz)                            C (1)                                             Q (rad)                                           A (m^2)
7.3493220609941154+1.5097719320319043E-4i         3.0752936870623476E-32                            24338.680161975666                                0.1731611866793452
7.349981526380775+1.5018701968065194E-4i          3.2202426349966453E-31                            24468.930469924388                                0.1731611866793452
7.351762696040702+1.74265847699079E-4i            1.178122906793892E-30                             21093.02728624334                                 0.1731611866793452
7.352847171798123+1.6544348284437669E-4i          2.560636859880008E-31                             22221.12870258668                                 0.1731611866793452
7.357580613872134+1.5991126197600347E-4i          1.8077823926146098E-30                            23004.69867277021                                 0.1731611866793452
7.357722934827044+1.6402609017345513E-4i          5.263551799992584E-31                             22428.01431746805                                 0.1731611866793452
7.358041255660601+1.6470263477700588E-4i          2.590591040039056E-32                             22336.851654046844                                0.1731611866793452
7.359246242898444+1.655391035180336E-4i           1.2750658171788942E-30                            22227.62062706497                                 0.1731611866793452
7.374703448796879+1.5996709457115568E-4i          5.688964866678345E-30                             23050.188925024107                                0.1731611866793452
7.375552246987972+1.5553397594446347E-4i          9.642793300382265E-31                             23709.92153928107                                 0.1731611866793452
7.387505348794522+1.1068898677295085E-4i          2.5582504822586253E-28                            33370.05278927221                                 0.1731611866793452
7.389378525795664+1.6349913817209665E-4i          0.4405775646218755                                22597.106976186325                                0.1731611866793452
7.392304085513148+1.6275715974082788E-4i          4.539251808964924E-6                              22709.11259509302                                 0.1731611866793452
7.394537946230041+1.087301034281245E-4i           7.066489386104163E-30                             34003.596909942506                                0.1731611866793452
7.395843037241005+1.6210758148992602E-4i          1.3511438349593577E-5                             22811.027298386965                                0.1731611866793452
7.396726521954602+1.6163204114493535E-4i          0.04492406964590871                               22880.87448838973                                 0.1731611866793452
7.399457710396809+1.6117640731317087E-4i          2.4237668630784145E-7                             22954.031116734586                                0.1731611866793452
7.402154058721217+1.6027496811997393E-4i          5.026271147543159E-6                              23091.546590321806                                0.1731611866793452
7.405032436330077+1.5975149652590958E-4i          2.4378797793559885E-6                             23176.22322530159                                 0.1731611866793452
7.4060031120699765+1.5984365202342457E-4i         0.03812392466854966                               23165.897356112724                                0.1731611866793452
7.408446479171504+1.5873053199530032E-4i          0.01885546253464759                               23336.051540270786                                0.1731611866793452
7.409973069500335+1.5880293536973603E-4i          3.8611873854374636E-6                             23330.21820891382                                 0.1731611866793452
7.411878960908954+1.5800000787331712E-4i          2.8427259607392828E-6                             23454.81200299661                                 0.1731611866793452
7.41551498325473+1.5692890534502304E-4i           2.729176279291182E-5                              23626.4888134485                                  0.1731611866793452
7.416234982987799+1.5712468635117698E-4i          0.013231896416739485                              23599.340208175254                                0.1731611866793452
7.418824790373814+1.5654105456982165E-4i          9.219919714568433E-7                              23695.599423453103                                0.1731611866793452
7.420418413082275+1.5642859136175418E-4i          8.80428054971643E-8                               23717.729327031666                                0.1731611866793452
7.423275502011893+1.558125669569179E-4i           4.359774184425561E-6                              23820.67063979153                                 0.1731611866793452
7.423485445810124+1.5491220073582935E-4i          0.0032935951716056883                             23959.79944289167                                 0.1731611866793452
7.4240559536811555+1.5505530797930013E-4i         6.94445150264234E-7                               23939.525135173895                                0.1731611866793452
7.425198289322971+1.4542546200734302E-4i          3.4265723181181956E-30                            25528.723600631583                                0.1731611866793452
7.427450659582028+1.5416794450311163E-4i          1.8112314419085957E-7                             24088.329434450312                                0.1731611866793452
7.429531925080179+1.54084954338198E-4i            2.182209451995184E-7                              24108.057290195116                                0.1731611866793452
7.432200792247162+1.5272501022053285E-4i          4.496369063998903E-6                              24331.470074935154                                0.1731611866793452
7.432510055069171+1.5289834977128905E-4i          0.004690870360735372                              24304.896459766576                                0.1731611866793452
7.435682457715525+1.52040639393299E-4i            4.5562127143985966E-7                             24452.44375903949                                 0.1731611866793452
7.4370284917605485+1.5291083843502898E-4i         0.01744628681408957                               24317.68605009925                                 0.1731611866793452
7.437676216741594+1.518435064311678E-4i           1.2991813280325125E-6                             24490.755282885842                                0.1731611866793452
7.4393091232383455+1.5190693002634727E-4i         3.96861925598818E-6                               24485.904454914893                                0.1731611866793452
7.441500471939134+1.5045437404556227E-4i          7.619086658503687E-4                              24729.589901964504                                0.1731611866793452
7.44214258300425+1.5074592853583306E-4i           5.802113185259704E-6                              24683.889728022634                                0.1731611866793452
7.44453458456572+1.49792260961801E-4i             1.7513610742868622E-6                             24849.02973549762                                 0.1731611866793452
7.445086765831643+1.5037107727287647E-4i          7.047882957946639E-4                              24755.21365959781                                 0.1731611866793452
7.446633481796356+1.4942087586869852E-4i          4.664936135007505E-8                              24917.816549621624                                0.1731611866793452
7.4503508105489225+1.4839958461756466E-4i         0.005099194498971106                              25101.829921807886                                0.1731611866793452
7.451090382319108+1.4825433287379773E-4i          3.265100881060123E-5                              25128.91810010944                                 0.1731611866793452
7.452832935345447+1.4790778228614487E-4i          9.259543861371788E-6                              25193.687396744706                                0.1731611866793452
7.453843361115823+1.4749198754460108E-4i          8.347584309600296E-11                             25268.137668625255                                0.1731611866793452
7.455412039407831+1.4718939501263395E-4i          1.1335420258203249E-8                             25325.413752581648                                0.1731611866793452
7.456692674724818+1.4837540200824257E-4i          2.1000927352873936E-8                             25127.291963389915                                0.1731611866793452
7.458862490105686+1.4610374770029067E-4i          3.6159502609787764E-5                             25525.41010192363                                 0.1731611866793452
7.45937642848353+1.4740357514135262E-4i           2.725643374926017E-6                              25302.061975834                                   0.1731611866793452
7.460386464523695+1.4598492582060493E-4i          0.0027682605787390647                             25551.406036088487                                0.1731611866793452
7.462311940946317+1.461675088530362E-4i           4.26415449020662E-12                              25526.074697040676                                0.1731611866793452
7.462420114364021+1.4511246255775222E-4i          5.7719586783407954E-6                             25712.039455423703                                0.1731611866793452
7.463649661410652+1.450393870482818E-4i           1.4642928939981166E-7                             25729.23286820604                                 0.1731611866793452
7.465314156955741+1.4481252059070522E-4i          4.2172748508458416E-9                             25775.288618148355                                0.1731611866793452
7.4677179928269055+1.4378667407114002E-4i         0.001458986092729698                              25967.544978957936                                0.1731611866793452
7.468295219298552+1.444564379726015E-4i           2.140212381505554E-6                              25849.143538719734                                0.1731611866793452
7.469010071825952+1.435567498248332E-4i           5.7182128115382745E-8                             26013.63616275611                                 0.1731611866793452
