% Model:              n169_R19.5_d38_r7_x11.6_y0_ideal.mph
% Version:            COMSOL 6.1.0.282
% Date:               Dec 8 2023, 12:26
% Table:              Table 1 - Global Evaluation 1
% Eigenfrequency (GHz)                            C (1)                                             Q (rad)                                           A (m^2)
6.96587360278351+9.710202454011504E-5i            3.2180818200847687E-32                            35868.35355472786                                 0.1731611757273037
6.982299632521828+9.591103475689071E-5i           4.529589187183036E-32                             36399.38700136923                                 0.1731611757273037
7.005817556235689+8.784300986078576E-5i           3.52639866617296E-31                              39876.42704867601                                 0.1731611757273037
7.040874724800095+9.026776188340476E-5i           1.565432738979668E-30                             38999.442141622574                                0.1731611757273037
7.0698761674175845+9.305547226985172E-5i          8.773166436287122E-33                             37986.928518302586                                0.1731611757273037
7.10833853614121+8.036459574415383E-5i            3.302659895137228E-33                             44225.060214453224                                0.1731611757273037
7.150040556770995+8.691927563018026E-5i           4.70335202055449E-29                              41129.84968332824                                 0.1731611757273037
7.159324474745611+1.5427426124402227E-4i          0.45520396786698536                               23202.73610609752                                 0.1731611757273037
7.162442473473957+1.5350885123552877E-4i          1.5083900860550854E-5                             23328.585311321858                                0.1731611757273037
7.166353876991382+1.528229129982299E-4i           2.977973646090867E-4                              23446.093758047336                                0.1731611757273037
7.167137337741558+1.5231579340126098E-4i          0.04683876969474498                               23526.728541623383                                0.1731611757273037
7.170200148801689+1.5186896485789458E-4i          2.2041055285600916E-6                             23606.03385496989                                 0.1731611757273037
7.172985901541241+1.509070759394189E-4i           7.190604310458359E-6                              23765.732880968928                                0.1731611757273037
7.17609845879096+1.5034476494101812E-4i           4.1223002790225775E-8                             23864.97318726913                                 0.1731611757273037
7.1772639112928625+1.5040270110296448E-4i         0.03926335661575402                               23859.65439688497                                 0.1731611757273037
7.179712867651022+1.4926745620987776E-4i          0.020739440219021972                              24049.32446430957                                 0.1731611757273037
7.181476455223077+1.493277313490604E-4i           1.400467988573673E-6                              24045.521861357196                                0.1731611757273037
7.183490837082664+1.4854756268182167E-4i          1.2414402110497862E-6                             24178.591148141855                                0.1731611757273037
7.187297464721687+1.4738694986267693E-4i          1.5310616295853585E-5                             24381.905113665678                                0.1731611757273037
7.188161585147009+1.4757562766225192E-4i          0.013841107272181989                              24353.65945562324                                 0.1731611757273037
7.19096167004937+1.469562187725547E-4i            5.222581863932196E-6                              24465.836971026045                                0.1731611757273037
7.1927784172048215+1.4683571367826536E-4i         2.651585812629135E-7                              24492.102129399977                                0.1731611757273037
7.195815051984637+1.4611384493134203E-4i          2.2737397983955095E-4                             24623.497693890014                                0.1731611757273037
7.1959068378895825+1.4536472642357403E-4i         0.00345645670586656                               24750.710011783878                                0.1731611757273037
7.1965626432194405+1.4542728527870414E-4i         1.7139738697989856E-6                             24742.31739138446                                 0.1731611757273037
7.200220312014818+1.445132960179426E-4i           4.928016799959779E-9                              24911.460567425835                                0.1731611757273037
7.202500028351451+1.4437913855512357E-4i          5.8184992300028E-8                                24942.50341791464                                 0.1731611757273037
7.203623660774656+1.2470292468341106E-4i          1.708870755980005E-28                             28882.632850910966                                0.1731611757273037
7.205245853400999+1.4300296275452805E-4i          2.134889690812059E-5                              25192.140309490416                                0.1731611757273037
7.205692454297086+1.4317496032464322E-4i          0.005340430988326081                              25163.43569730049                                 0.1731611757273037
7.209065861976658+1.4227642892661988E-4i          4.041638198821366E-6                              25334.210420801577                                0.1731611757273037
7.210712154921333+1.430536962358325E-4i           0.01805458103915231                               25202.310769208292                                0.1731611757273037
7.211228574717591+1.4203395684286575E-4i          4.927606965923291E-6                              25385.073381767004                                0.1731611757273037
7.213080781552639+1.4204916776186378E-4i          8.582200600739565E-6                              25388.87433466068                                 0.1731611757273037
7.214792872664031+7.971231659812329E-5i           9.899121587203766E-29                             45254.68330099756                                 0.1731611757273037
7.215262578107908+1.4061637188060792E-4i          8.627810171062672E-4                              25655.33431990889                                 0.1731611757273037
7.2160893433579565+1.4089126854530606E-4i         5.976540978546163E-7                              25608.210454146232                                0.1731611757273037
7.218566090622069+1.3990201452977345E-4i          7.323695188677116E-7                              25798.142171664276                                0.1731611757273037
7.219270637696235+1.4047110539121952E-4i          7.163361423103706E-4                              25696.131751452227                                0.1731611757273037
7.220915868021163+1.3949728721813928E-4i          8.043188758700643E-7                              25881.414337008933                                0.1731611757273037
7.224901054315236+1.3841090961122217E-4i          0.005941249274160578                              26098.955089436266                                0.1731611757273037
7.225640304020682+1.3827024872854114E-4i          5.390910862080097E-5                              26128.178843100442                                0.1731611757273037
7.227553182744477+1.379287297150529E-4i           1.1225333793583687E-5                             26199.808756854247                                0.1731611757273037
7.228598966338883+1.374946626753862E-4i           6.702291729997395E-8                              26286.325208891907                                0.1731611757273037
7.230393267592524+1.3713335744018469E-4i          2.2487207654499986E-7                             26362.124871965847                                0.1731611757273037
7.231962499124387+1.3828042071183867E-4i          1.0465716989822072E-7                             26149.11544521404                                 0.1731611757273037
7.2340896020303935+1.359893357916634E-4i          6.222820695717056E-6                              26597.492303710133                                0.1731611757273037
7.234832517966954+1.3730723562722756E-4i          4.7792679674814515E-6                             26344.905056373376                                0.1731611757273037
7.2357902555538365+1.3586556915828356E-4i         0.0033202495764497546                             26627.979889490067                                0.1731611757273037
7.237822422485886+1.3510784856235952E-4i          1.6905854717911422E-5                             26784.83947031338                                 0.1731611757273037
7.237873038617976+1.359235130337957E-4i           1.762023063180309E-6                              26624.289297585008                                0.1731611757273037
7.2391924962582825+1.3492392472244544E-4i         4.428721367241363E-9                              26826.429207435092                                0.1731611757273037
7.241177462562293+1.3461498002370197E-4i          5.793282418775608E-7                              26895.36988747846                                 0.1731611757273037
7.243663431595167+1.33552217243246E-4i            0.0018149397686994901                             27118.704407772395                                0.1731611757273037
7.244347296432301+1.3424650276646765E-4i          1.2326179159262809E-6                             26980.998288255305                                0.1731611757273037
7.245199620483239+1.3329882125705773E-4i          9.479568019512728E-6                              27176.018736681926                                0.1731611757273037
7.2492949552798445+1.321711100557361E-4i          1.017925952029238E-6                              27423.385707530106                                0.1731611757273037
7.2493608042958755+1.3227058958644017E-4i         1.7180203483742658E-8                             27403.00934319303                                 0.1731611757273037
7.2497282041128175+1.323513541363968E-4i          8.113782076737061E-8                              27387.6748012734                                  0.1731611757273037
7.2519871637802575+1.318200785565048E-4i          1.2771991381967371E-7                             27506.625239443827                                0.1731611757273037
