% Model:              n169_R19.5_d38_r7_x3.6_y0_ideal.mph
% Version:            COMSOL 6.1.0.282
% Date:               Dec 8 2023, 09:54
% Table:              Table 1 - Global Evaluation 1
% Eigenfrequency (GHz)                            C (1)                                             Q (rad)                                           A (m^2)
9.164449862486006+9.241967595770262E-5i           1.259735331728318E-31                             49580.130789648974                                0.1731610520161119
9.171757246472575+8.92845996841211E-5i            1.3740615645373744E-31                            51361.99030231333                                 0.1731610520161119
9.178104740750232+9.240414290684191E-5i           3.574367406138468E-31                             49662.349310305835                                0.1731610520161119
9.1884382443854+9.738986362750427E-5i             1.1135113635955264E-30                            47172.98862289748                                 0.1731610520161119
9.191433978387918+9.509892029024797E-5i           1.367103395201988E-30                             48325.15330366212                                 0.1731610520161119
9.199969674525331+9.622400610996746E-5i           5.053158570132429E-31                             47804.464528192475                                0.1731610520161119
9.201673538583586+9.46707786753652E-5i            1.5101515882535932E-32                            48597.78108632996                                 0.1731610520161119
9.21477958974543+9.917000741099314E-5i            3.4440350784731374E-33                            46459.01068067411                                 0.1731610520161119
9.216371225320943+9.606330101644787E-5i           1.2780604945045125E-32                            47969.804739327374                                0.1731610520161119
9.224268288018415+9.560208166700502E-5i           2.2219758844399303E-32                            48242.53216634258                                 0.1731610520161119
9.224357254455041+9.52617397665224E-5i            4.0022864358240867E-32                            48415.35714276905                                 0.1731610520161119
9.23292654581287+9.339916501765082E-5i            8.496548394537037E-35                             49426.744677976014                                0.1731610520161119
9.238695700749176+9.539249680442611E-5i           1.9552033150676037E-33                            48424.1464719519                                  0.1731610520161119
9.25178167635592+9.481217924731552E-5i            2.166588432988972E-34                             48789.54908101894                                 0.1731610520161119
9.257536435324992+9.693175227405918E-5i           8.693882412041716E-34                             47752.35845038861                                 0.1731610520161119
9.265216401743064+9.512516469885038E-5i           1.0018982764530092E-34                            48699.63346239648                                 0.1731610520161119
9.2719251623537+9.479634354992286E-5i             1.7670420630419676E-34                            48903.9452137538                                  0.1731610520161119
9.274164738934159+9.65382335895903E-5i            8.471901355254472E-36                             48033.136039660305                                0.1731610520161119
9.289907737007876+9.988993875223918E-5i           6.520500424530983E-35                             46500.2179646429                                  0.1731610520161119
9.297179507061218+9.599165121540839E-5i           4.405477781501573E-36                             48426.52146671637                                 0.1731610520161119
9.300726899787879+9.287760573881608E-5i           4.531948889147628E-36                             50069.303300647545                                0.1731610520161119
9.30107518882336+9.278224982288531E-5i            4.416374808818886E-36                             50122.638895215256                                0.1731610520161119
9.305524812158554+9.464258423945959E-5i           1.4702314572257884E-35                            49160.90492040252                                 0.1731610520161119
9.308578263955607+9.44864882893163E-5i            4.4260822599777926E-35                            49258.27992182271                                 0.1731610520161119
9.319604848687113+9.715698707542532E-5i           3.8075298007504865E-34                            47961.07808468526                                 0.1731610520161119
9.323067638183334+9.79976010414251E-5i            4.498288333223021E-35                             47567.33600404033                                 0.1731610520161119
9.32714969156674+9.690395051721732E-5i            4.196927016101566E-34                             48125.24527773755                                 0.1731610520161119
9.340629989676216+9.558742556884181E-5i           2.4987524666661797E-33                            48858.59358012515                                 0.1731610520161119
9.341342231561216+9.071641221344879E-5i           5.253780872524876E-35                             51486.00587669644                                 0.1731610520161119
9.344620290369248+9.137638929320928E-5i           3.6982360067788917E-32                            51132.075378576556                                0.1731610520161119
9.35228424514419+1.0046220700807447E-4i           1.9549567542309033E-32                            46545.78054163987                                 0.1731610520161119
9.353932415612537+9.757756782019863E-5i           6.935039951071241E-33                             47930.251461421816                                0.1731610520161119
9.370413445345614+9.758341471743919E-5i           1.3417690685781237E-31                            48011.82474046549                                 0.1731610520161119
9.374636940749742+9.557953027190913E-5i           1.5180665316932561E-31                            49040.52695302311                                 0.1731610520161119
9.37556054810236+9.512357412826928E-5i            5.050167432767422E-31                             49280.45018669808                                 0.1731610520161119
9.380470799795324+9.558223271783977E-5i           1.6707627479327106E-30                            49069.65747953907                                 0.1731610520161119
9.384448139404075+9.586232767883731E-5i           5.113920733403259E-30                             48947.026788870025                                0.1731610520161119
9.38581454033392+9.704721089408804E-5i            6.346788431565733E-30                             48356.44914458077                                 0.1731610520161119
9.390977655221086+9.887681963155731E-5i           3.381835214567384E-29                             47487.764418381295                                0.1731610520161119
9.400305032466624+2.7178656208743307E-4i          0.4358560021811606                                17293.041361987835                                0.1731610520161119
9.40396365106797+2.708718604785135E-4i            1.5639022733177276E-5                             17358.19282454735                                 0.1731610520161119
9.406504838128221+2.705486809920282E-4i           6.72383561635493E-5                               17383.62461129486                                 0.1731610520161119
9.409423492314854+2.694977359665011E-4i           0.037217001195864505                              17456.83134641945                                 0.1731610520161119
9.411094803778019+2.6938003769720305E-4i          1.655922214203039E-7                              17467.560914024834                                0.1731610520161119
9.41584428404564+2.678973283750591E-4i            1.7071615822720685E-4                             17573.10407328703                                 0.1731610520161119
9.416351236752995+1.0090711508292136E-4i          4.443038453039748E-26                             46658.0041637287                                  0.1731610520161119
9.416354472566784+2.6857105236618675E-4i          0.04746046604348091                               17529.969596296025                                0.1731610520161119
9.418059182228031+2.676001532564246E-4i           4.4925194898609E-6                                17596.758222829503                                0.1731610520161119
9.421714576558129+2.6708353223386987E-4i          5.2459694469253375E-6                             17637.63964118162                                 0.1731610520161119
9.423255447271517+2.6605216119962935E-4i          0.006721477689112697                              17708.91091546932                                 0.1731610520161119
9.426188997147763+9.662907515360683E-5i           7.43071941246819E-31                              48774.61002926406                                 0.1731610520161119
9.426298859603902+2.655720533132966E-4i           1.2980066021101597E-6                             17746.656161673945                                0.1731610520161119
9.429666558719976+2.6594188897032477E-4i          1.9561401665975592E-4                             17728.307260270234                                0.1731610520161119
9.430019660435768+2.648014155279728E-4i           0.015659166775772383                              17805.33018020557                                 0.1731610520161119
9.431389410698916+9.760034274262982E-5i           2.303177930437454E-28                             48315.86604402212                                 0.1731610520161119
9.431881817378411+2.6385365714055913E-4i          9.800699102317839E-9                              17872.81709278601                                 0.1731610520161119
9.434924256143152+2.641861406880369E-4i           5.449404777455333E-6                              17856.081077575745                                0.1731610520161119
9.434972226551624+2.637554752462692E-4i           3.972577905459723E-9                              17885.328609301698                                0.1731610520161119
9.436261695662777+9.858488542902439E-5i           4.3652049578148214E-29                            47858.052692156314                                0.1731610520161119
9.439958221233933+2.621608901184906E-4i           2.6739438625637453E-6                             18003.627613632507                                0.1731610520161119
