% Model:              n169_R19.5_d38_r7_x7.2_y0_ideal.mph
% Version:            COMSOL 6.1.0.282
% Date:               Dec 8 2023, 10:08
% Table:              Table 1 - Global Evaluation 1
% Eigenfrequency (GHz)                            C (1)                                             Q (rad)                                           A (m^2)
8.152578635537454+1.0066996096609651E-4i          2.2698220446496225E-30                            40491.11565682936                                 0.17316109020295134
8.16320247938781+1.0123986924994924E-4i           3.531313289799517E-29                             40315.64514533127                                 0.17316109020295134
8.164320336784087+1.0249843169041498E-4i          2.82613684534195E-30                              39826.062440516136                                0.17316109020295134
8.172186802868609+9.701981468631517E-5i           4.514197685796174E-30                             42115.57108408392                                 0.17316109020295134
8.174281644329662+9.596258156782264E-5i           6.2480832599832425E-30                            42590.48456467743                                 0.17316109020295134
8.17913053659975+1.0064637856819308E-4i           8.348678157899943E-29                             40632.50966634333                                 0.17316109020295134
8.188324617863492+9.792713460106686E-5i           1.7170725214381494E-26                            41807.751889638996                                0.17316109020295134
8.188863071535591+1.97834286763556E-4i            0.4163266930142548                                20695.76860817418                                 0.17316109020295134
8.191424513754287+1.9714112214637194E-4i          6.427772644830327E-7                              20775.03488044149                                 0.17316109020295134
8.194415583320412+1.966230735649467E-4i           1.0707074313679424E-4                             20837.378890838798                                0.17316109020295134
8.19532280966281+1.9610296476699657E-4i           0.04058201769909132                               20894.958730505816                                0.17316109020295134
8.196120633602606+1.0119201175018729E-4i          7.342276142556086E-29                             40497.3638786358                                  0.17316109020295134
8.197562756527153+1.957440863991565E-4i           5.552072330341437E-7                              20938.990208900545                                0.17316109020295134
8.198496849829692+9.83012425109771E-5i            7.78130186006065E-31                              41700.38109638684                                 0.17316109020295134
8.200112504717582+1.9487029628827713E-4i          7.050656816571335E-6                              21039.4241586247                                  0.17316109020295134
8.202449585650795+1.9441090951086514E-4i          3.389272737584246E-5                              21095.151501448086                                0.17316109020295134
8.203181710393912+1.9469441476846697E-4i          0.036909706091728126                              21066.313151097922                                0.17316109020295134
8.205425087081656+1.0380724712760549E-4i          6.140796855333362E-29                             39521.90963557878                                 0.17316109020295134
8.205609754873342+1.9345006244041982E-4i          0.0158574312047412                                21208.09940735407                                 0.17316109020295134
8.206654483291945+1.9370095667428647E-4i          2.9266263938625472E-8                             21183.32538855172                                 0.17316109020295134
8.208237806080078+1.0252052837164017E-4i          1.0966792312305975E-29                            40031.66690920253                                 0.17316109020295134
8.208494866106506+1.9282694865328865E-4i          1.2526814372910052E-7                             21284.115369782743                                0.17316109020295134
8.211816179653647+1.9179158970507353E-4i          1.0090077642708243E-4                             21407.67591415921                                 0.17316109020295134
8.212178140100912+1.9212274784149785E-4i          0.0117117126821681                                21371.71707242375                                 0.17316109020295134
8.212408583787855+1.0043536598297256E-4i          3.6434939349747463E-28                            40883.54767844701                                 0.17316109020295134
8.213836104480913+1.0499863952250796E-4i          4.6398533573547125E-31                            39113.51205089169                                 0.17316109020295134
8.214389044229256+1.91743427215711E-4i            2.5913020755941217E-6                             21419.762392061566                                0.17316109020295134
8.215718863937438+1.9148041416255292E-4i          7.254276559402658E-7                              21452.657234366776                                0.17316109020295134
8.218069434425594+1.9107579208465505E-4i          1.503649250409899E-7                              21504.23731798567                                 0.17316109020295134
8.21878765895681+1.899292110978006E-4i            0.0027943338334007442                             21635.949731698518                                0.17316109020295134
8.219001637695593+1.0220739012512156E-4i          3.347998474600468E-29                             40206.972386136724                                0.17316109020295134
8.219112997872674+1.9023326464680465E-4i          1.1050170461024484E-5                             21602.22287513263                                 0.17316109020295134
8.22211780522516+1.8939732519732702E-4i           3.857922400707049E-7                              21705.502950970305                                0.17316109020295134
8.222640772233584+1.0148131454685852E-4i          4.351970013805715E-31                             40512.57770021844                                 0.17316109020295134
8.223596220359056+1.894317507985507E-4i           2.8778326268706895E-7                             21705.460530795663                                0.17316109020295134
8.226389801463426+1.879491285444022E-4i           4.397929539285685E-5                              21884.11806667653                                 0.17316109020295134
8.226514203102315+1.8828592074012526E-4i          0.0032705739447099215                             21845.30280189807                                 0.17316109020295134
8.227760533075648+1.0121789873789605E-4i          1.0972559158438097E-30                            40643.302216117554                                0.17316109020295134
8.229307757077112+1.87456984729959E-4i            3.69288915112836E-9                               21949.356254668495                                0.17316109020295134
8.229841808224307+1.886603239839916E-4i           0.016643270804472435                              21810.76803347709                                 0.17316109020295134
8.230024263982672+1.0387366662000566E-4i          6.800983728144126E-27                             39615.04698003298                                 0.17316109020295134
8.230799872732314+1.8734780283698242E-4i          4.153812321599705E-6                              21966.13031196987                                 0.17316109020295134
8.232031113741177+1.8770273954835372E-4i          1.96772607113131E-7                               21927.872241033314                                0.17316109020295134
8.232280159084816+1.0024603045880254E-4i          8.186055274616783E-30                             41059.87959903604                                 0.17316109020295134
8.234438714098706+1.8598639673279654E-4i          7.213249454455454E-4                              22136.7068721071                                  0.17316109020295134
8.234749358460116+1.0236411384081726E-4i          7.82786549583635E-29                              40222.33303905885                                 0.17316109020295134
8.23480941006131+1.8631281628521572E-4i           7.364371243952622E-6                              22098.91736338669                                 0.17316109020295134
8.236996882051491+1.8549550882352106E-4i          8.156221674411875E-5                              22202.185366140933                                0.17316109020295134
8.237026029843642+1.0219807248488754E-4i          1.6972479060579997E-28                            40298.82161777604                                 0.17316109020295134
8.237123285350199+1.8604076464310694E-4i          5.80971012034231E-4                               22137.45255334828                                 0.17316109020295134
8.238663916548731+1.8511520049474198E-4i          1.5107922461511143E-6                             22252.302158409526                                0.17316109020295134
8.239223049687288+1.0249845224417415E-4i          1.2262150161861627E-30                            40191.43858226407                                 0.17316109020295134
8.240131547932547+1.0181783435841849E-4i          1.8103991294737722E-31                            40464.569506383734                                0.17316109020295134
8.242082563336393+1.842096435687372E-4i           0.004050046469154542                              22370.97398378547                                 0.17316109020295134
8.24227458307282+1.0233183952256902E-4i           3.656458488360661E-27                             40271.78745185956                                 0.17316109020295134
8.242545659059907+1.8418440652099717E-4i          2.857165408633186E-5                              22375.29648139399                                 0.17316109020295134
8.244115751213501+1.8360902599332202E-4i          2.065574542303334E-6                              22449.691732057272                                0.17316109020295134
8.24506037954672+1.8341928916568132E-4i           2.632252287988387E-8                              22475.490215744485                                0.17316109020295134
8.246311841180718+1.8319867982544824E-4i          5.17932027238253E-7                               22505.971565084936                                0.17316109020295134
8.246811452048961+1.8471241628404377E-4i          9.00328623677879E-7                               22322.88055289078                                 0.17316109020295134
