% Model:              n169_R19.5_d38_r7_x9.4_y0_ideal.mph
% Version:            COMSOL 6.1.0.282
% Date:               Dec 8 2023, 10:16
% Table:              Table 1 - Global Evaluation 1
% Eigenfrequency (GHz)                            C (1)                                             Q (rad)                                           A (m^2)
7.536229034066052+1.1685189720499408E-4i          7.8442904100392E-32                               32246.42750183889                                 0.17316116791097533
7.539024497610565+1.193278493877775E-4i           1.516439061525476E-32                             31589.04419398306                                 0.17316116791097533
7.539290882050845+1.1905687707032455E-4i          3.971091025380723E-32                             31662.06040964229                                 0.17316116791097533
7.551546675700511+1.1776969724310435E-4i          1.9527526614873142E-31                            32060.153022723196                                0.17316116791097533
7.556958713878508+1.1954671553400104E-4i          3.9239954714793855E-31                            31606.218627183054                                0.17316116791097533
7.559377865220224+1.1831253971172681E-4i          1.5303422756724462E-31                            31946.14723380015                                 0.17316116791097533
7.568965580448273+1.171251038319486E-4i           2.572932295499878E-31                             32310.95743576001                                 0.17316116791097533
7.582869046009986+1.1715301911329402E-4i          5.42531858572378E-31                              32362.597044074464                                0.17316116791097533
7.591455930187153+1.1839816033662295E-4i          1.848256325306939E-32                             32058.51135245427                                 0.17316116791097533
7.591546397182673+1.1896507341537596E-4i          3.53145482987028E-32                              31906.118395314286                                0.17316116791097533
7.594634842453828+1.1858732022249196E-4i          2.7586655577458014E-31                            32020.776938402825                                0.17316116791097533
7.60298530450646+1.1680707220948943E-4i           4.230879455939224E-34                             32544.555545244893                                0.17316116791097533
7.6078659846536505+1.1809869060050004E-4i         2.3334365696234477E-31                            32209.281273836925                                0.17316116791097533
7.610548077055371+1.7086070590678122E-4i          0.43082287182532736                               22270.706358332                                   0.17316116791097533
7.6133103009476235+1.7015425008900462E-4i         5.455296088662829E-6                              22371.290002659734                                0.17316116791097533
7.615872917539289+1.1920885228283975E-4i          2.0880552084595493E-31                            31942.90340138645                                 0.17316116791097533
7.616632292903177+1.695271062105653E-4i           4.6159787761784125E-5                             22463.849394623587                                0.17316116791097533
7.616987462146588+1.2192558308029497E-4i          4.388391862780778E-30                             31235.715018423965                                0.17316116791097533
7.617535148614491+1.6910165035085052E-4i          0.043442076154542104                              22523.038743008234                                0.17316116791097533
7.618255080589412+1.1806576157281748E-4i          1.0449135390161504E-27                            32262.261761816117                                0.17316116791097533
7.620016966818865+1.6862614136699868E-4i          2.5948258788164505E-5                             22593.91181504916                                 0.17316116791097533
7.622673196590069+1.6781079845235643E-4i          1.9239993858063965E-6                             22711.60570982205                                 0.17316116791097533
7.625075051483771+1.2412477647553955E-4i          8.356275676204843E-31                             30714.86260813627                                 0.17316116791097533
7.625291552955845+1.672555788840172E-4i           8.908096646717573E-6                              22794.82793363924                                 0.17316116791097533
7.625347997920344+1.2410607999427964E-4i          6.657480098245673E-29                             30720.58950028692                                 0.17316116791097533
7.626113835661848+1.2548898812953906E-4i          8.813164805964208E-29                             30385.089731265336                                0.17316116791097533
7.626291663098844+1.6743694276500623E-4i          0.036732568954745574                              22773.12307506666                                 0.17316116791097533
7.6265280346274835+1.2546916510850352E-4i         4.330871125699445E-27                             30391.54098321301                                 0.17316116791097533
7.628578443528965+1.663002426066211E-4i           0.018980164429889812                              22935.66143279252                                 0.17316116791097533
7.629945343013562+1.6637486563125402E-4i          5.6692143538058135E-6                             22929.481906133846                                0.17316116791097533
7.631839043721888+1.6564439170137514E-4i          3.1979462678255633E-6                             23036.316802181467                                0.17316116791097533
7.635313379986159+1.6461355569398101E-4i          5.894262436017284E-6                              23191.129945244167                                0.17316116791097533
7.635893759486601+1.6478988551549243E-4i          0.012121002688898827                              23168.075208555332                                0.17316116791097533
7.638315638723276+1.642308302774289E-4i           2.5516863957024943E-6                             23254.316308690934                                0.17316116791097533
7.639848677404467+1.6413678485470315E-4i          5.6112265014919885E-8                             23272.31059645094                                 0.17316116791097533
7.64246140423781+1.635074958630495E-4i            2.000270009960602E-5                              23369.869913830647                                0.17316116791097533
7.642809254695897+1.6267172777758324E-4i          0.003091582029484365                              23491.010408060414                                0.17316116791097533
7.643335958269287+1.6285811846803895E-4i          4.994004367547644E-5                              23465.741488768945                                0.17316116791097533
7.646543961727256+1.6199457917090865E-4i          1.5160293760797957E-7                             23600.733739265437                                0.17316116791097533
7.648342098428596+1.6184155322650155E-4i          2.3937351030830965E-7                             23628.604596465382                                0.17316116791097533
7.651078335423812+1.6061542151859883E-4i          2.543428252032693E-4                              23817.50614481512                                 0.17316116791097533
7.65132189423951+1.6079638365354177E-4i           0.004080941296721934                              23791.458426721372                                0.17316116791097533
7.654278504199961+1.5993851321376116E-4i          1.8620217640204705E-6                             23928.31545333785                                 0.17316116791097533
7.655505465846049+1.6083043588793023E-4i          0.017049584054737003                              23799.42704894636                                 0.17316116791097533
7.656085048485602+1.5975071991306523E-4i          6.116723874825213E-5                              23962.09892803643                                 0.17316116791097533
7.65768072276077+1.5987988024632053E-4i           1.1886008463113466E-7                             23947.73071273881                                 0.17316116791097533
7.659814879012683+1.5844757252863822E-4i          7.37107889199093E-4                               24170.948406810654                                0.17316116791097533
7.660339340784062+1.5870134235645747E-4i          1.8062545316864595E-5                             24133.949624019693                                0.17316116791097533
7.662595201552647+1.5777980930329914E-4i          1.652663150700929E-6                              24282.058622480843                                0.17316116791097533
7.6631040802157715+1.58357750895615E-4i           5.716345741168998E-4                              24195.043844536976                                0.17316116791097533
7.664492380558106+1.5741078293576833E-4i          1.0602144257244393E-7                             24345.011625037103                                0.17316116791097533
7.668117325859125+1.5648166700990237E-4i          0.004731645195211716                              24501.146523936244                                0.17316116791097533
7.668816246718144+1.5638938646209962E-4i          2.905339429974854E-10                             24517.838708204443                                0.17316116791097533
7.669697495258134+1.168553741247401E-4i           7.886097736754446E-29                             32816.54922303975                                 0.17316116791097533
7.6702417300453964+1.1681608951537877E-4i         5.800197569786962E-29                             32829.914830709575                                0.17316116791097533
7.670453931518138+1.5600054440217866E-4i          9.747941886929848E-6                              24584.201238129834                                0.17316116791097533
7.671340179545584+1.555641757781288E-4i           2.8626830607249564E-8                             24656.011530907115                                0.17316116791097533
7.672826978716151+1.5532573434503454E-4i          1.6865628933197414E-8                             24698.647871763475                                0.17316116791097533
7.6740489460247945+1.5654133396110414E-4i         6.56018528381188E-9                               24510.753077589306                                0.17316116791097533
7.676161730814177+1.5432672865397734E-4i          1.246826108471652E-5                              24869.337261998233                                0.17316116791097533
