% Model:              n7_d38_R19.5_r7_h300_lrod300_x0.00_simplified_model_full_pillbox.mph
% Version:            COMSOL 6.1.0.282
% Date:               Mar 8 2024, 15:39
% Table:              Evaluation Group 1 - 
% Eigenfrequency (GHz)                            Form Factor (1)                                   Quality Factor (rad)                              Active Volume (m^3)
10.341019900726407+1.42516619594926E-4i           2.7740969477833193E-8                             36279.557053804245                                0.002164808487831503
10.348005633218063+1.7015021022054227E-4i         2.8040652337986664E-7                             30407.947951859103                                0.002164808487831503
10.348890738528882+1.4269737345685667E-4i         2.40986205112788E-8                               36261.17897399546                                 0.002164808487831503
10.356518089454253+1.6902245243723092E-4i         2.0426131763283253E-6                             30636.020812971907                                0.002164808487831503
10.371274615161308+1.1113622950545616E-4i         1.6227754571888109E-9                             46659.692944063405                                0.002164808487831503
10.377004479753312+1.3927646855858145E-4i         3.440296518875957E-10                             37252.761949442676                                0.002164808487831503
10.382871025567106+1.7272987891358288E-4i         2.1319454165605118E-7                             30054.72843289565                                 0.002164808487831503
10.38691909810183+1.7256384434442766E-4i          1.7127141204457716E-7                             30095.375405792925                                0.002164808487831503
10.400015580337667+1.3073404006650616E-4i         3.005932975706412E-7                              39774.971413965504                                0.002164808487831503
10.401263859295069+1.4244306500963398E-4i         3.6352746804403667E-9                             36509.75202160305                                 0.002164808487831503
10.40387156946941+1.6585555968604967E-4i          2.934665394951585E-7                              31363.754818294386                                0.002164808487831503
10.409030795455832+1.4265759843926077E-4i         4.114031877857513E-8                              36482.06852647414                                 0.002164808487831503
10.414699105048241+1.2454832669950712E-4i         3.520859648936403E-8                              41809.37305542889                                 0.002164808487831503
10.415657957088245+1.255180108840905E-4i          1.0419111680119668E-8                             41490.19214796451                                 0.002164808487831503
10.427344825218526+1.2530485243390836E-4i         6.251626580773389E-7                              41607.40600202278                                 0.002164808487831503
10.431911447833581+1.2446333154056253E-4i         1.2833204926389039E-8                             41907.07027618676                                 0.002164808487831503
10.435598787089464+1.2416238592115203E-4i         2.569067553515563E-8                              42023.49487279605                                 0.002164808487831503
10.455221794153882+2.9403195165908795E-4i         1.5507749929348857E-6                             17778.55733249321                                 0.002164808487831503
10.457284614053444+2.7987756128132577E-4i         3.833125557921716E-6                              18681.3918544812                                  0.002164808487831503
10.458879533846535+2.8120879185727774E-4i         1.2024199084222456E-6                             18595.78838622369                                 0.002164808487831503
10.459488467917202+1.4075800620942246E-4i         5.165510623954387E-7                              37153.651258106576                                0.002164808487831503
10.46525047675759+2.496073036064184E-4i           6.742428446400875E-6                              20962.930065585602                                0.002164808487831503
10.465711319118984+2.485898011891212E-4i          2.5994476842667847E-7                             21049.662350092553                                0.002164808487831503
10.469467734446976+2.350562029011237E-4i          2.471107111136189E-6                              22269.63715484674                                 0.002164808487831503
10.477348585529924+1.2825677332805064E-4i         1.7312286163894008E-6                             40844.705760867335                                0.002164808487831503
10.480622236022882+1.286715565475468E-4i          8.44466125989004E-8                               40725.75886719706                                 0.002164808487831503
10.48472329492026+1.4296493285275545E-4i          3.9205386162551085E-8                             36668.363789708994                                0.002164808487831503
10.486594206041124+1.7403697442127378E-4i         7.227744619776739E-8                              30126.98941710963                                 0.002164808487831503
10.48978234861104+1.6084826963830604E-4i          1.974464613010695E-8                              32607.19411820653                                 0.002164808487831503
10.489855381471457+1.6079074087539636E-4i         3.363836632444557E-6                              32619.087817746607                                0.002164808487831503
10.490456612735711+1.5521681998924825E-4i         7.604270748161636E-7                              33792.41179980619                                 0.002164808487831503
10.491211762087026+1.5198154845825937E-4i         5.815231775958832E-8                              34514.25482111573                                 0.002164808487831503
10.491324627213077+1.51880768295783E-4i           7.453738761578773E-8                              34537.52857154918                                 0.002164808487831503
10.491985687688896+1.4726793983047047E-4i         4.963498609292513E-7                              35621.5970500362                                  0.002164808487831503
10.492426026584127+1.4283423339770066E-4i         1.8251927260053736E-7                             36728.88125276721                                 0.002164808487831503
10.508538578961787+1.384151938644946E-4i          1.6661448603850207E-9                             37959.706128371115                                0.002164808487831503
10.530143935224835+1.359810009530118E-4i          1.3233453048485431E-6                             38718.673440586324                                0.002164808487831503
10.535094049400959+1.4303842652372517E-4i         5.466995052286656E-8                              36825.59730304638                                 0.002164808487831503
10.540482692481621+1.3594924092272126E-4i         2.859210217122879E-7                              38765.74313941112                                 0.002164808487831503
10.54287466989081+1.4306235499404502E-4i          4.3400669681540075E-7                             36846.63084566709                                 0.002164808487831503
10.554629331894608+2.0272819461908468E-4i         3.26191890978616E-6                               26030.978408695046                                0.002164808487831503
10.567594469892953+1.8782076290851878E-4i         2.3744085638376817E-5                             28131.62483374091                                 0.002164808487831503
10.567881621803343+1.8769621136289892E-4i         4.584297325254723E-7                              28151.057694384406                                0.002164808487831503
10.570775285665166+1.4357615091422623E-4i         3.409276986404418E-6                              36811.933742033354                                0.002164808487831503
10.578570194823978+1.433951695562891E-4i          2.421245510619877E-7                              36885.5748703303                                  0.002164808487831503
10.591449223439614+1.427596922143848E-4i          3.3599698598016104E-6                             37094.87554585669                                 0.002164808487831503
10.594884075328228+3.913591801404758E-4i          0.554593165654314                                 13535.51006189794                                 0.002164808487831503
10.59834386870272+1.0590511736956166E-4i          2.823147627258766E-5                              50036.474572430794                                0.002164808487831503
10.59911243118866+1.4289935165248257E-4i          6.664660095032569E-5                              37085.434106716944                                0.002164808487831503
10.607030743462461+3.9699051083964495E-4i         0.0013776922745995924                             13358.799235843171                                0.002164808487831503
10.617339038661305+1.3249691518121994E-4i         2.809178480438384E-7                              40065.85968873765                                 0.002164808487831503
10.618419571019068+1.7121772849114966E-4i         1.368681274794728E-4                              31008.02558346492                                 0.002164808487831503
10.621494159152407+1.7078337723891736E-4i         3.7038320692008004E-5                             31095.890393645415                                0.002164808487831503
10.62756754823892+1.3206437316421504E-4i          3.800463918368763E-7                              40235.810960817376                                0.002164808487831503
10.629695847433211+1.4381693326287576E-4i         1.2517167752785608E-7                             36955.14343258787                                 0.002164808487831503
10.633566438024657+1.0603549927050693E-4i         7.807588471289445E-9                              50141.03354636679                                 0.002164808487831503
10.637469227010698+1.4383865567864904E-4i         1.2302840902640617E-6                             36976.58277499305                                 0.002164808487831503
10.64201545724703+3.9782220446858707E-4i          6.411614991440613E-5                              13374.839182114412                                0.002164808487831503
10.661922142535563+1.3745668924392693E-4i         5.185643697573639E-10                             38782.33332342411                                 0.002164808487831503
10.663680289733287+1.3618423688198635E-4i         1.37023331529712E-6                               39151.1597277431                                  0.002164808487831503
