% Model:              n7_d38_R19.5_r7_h300_lrod299_x0.00_rodtilt0.20deg_realistic_cavity.mph
% Version:            COMSOL 6.1.0.282
% Date:               Mar 20 2024, 11:26
% Table:              Evaluation Group 1 - 
% Eigenfrequency (GHz)                            Form Factor (1)                                   Quality Factor (rad)                              Active Volume (m^3)
10.33849429961495+0.0038510716422289954i          1.7144543960244413E-7                             35902.36914821535                                 0.0021658438675837646
10.339593628939262+0.05491465270624763i           8.865630242559303E-6                              20829.953158330296                                0.0021658438675837646
10.346403597224233+0.003740418991581535i          3.0269855306305406E-9                             35957.741368101124                                0.0021658438675837646
10.352293915515826+0.05951632349542131i           5.776790105833857E-7                              21293.730798388107                                0.0021658438675837646
10.365846962786406+0.10754972276958229i           7.964773267521635E-7                              26029.802071692135                                0.0021658438675837646
10.371078113274594+0.02182407960385166i           2.5287152287200865E-9                             37104.17777104874                                 0.0021658438675837646
10.379606291503261+0.06090121447607461i           2.7812679041542795E-4                             33239.572383777144                                0.0021658438675837646
10.390431206638286+0.06397374733397268i           1.4940857210170537E-6                             32679.38949613503                                 0.0021658438675837646
10.397964699255736+0.007923375311237163i          3.5524069275432087E-7                             35921.34385053216                                 0.0021658438675837646
10.399419611391133+0.1026000427743904i            3.7812348827240066E-7                             28131.024179021566                                0.0021658438675837646
10.401768353497198+0.059889760159172606i          0.00297501343269989                               24222.81607558509                                 0.0021658438675837646
10.405912929201895+0.007919194636220407i          1.2990882420731134E-7                             35944.809831612096                                0.0021658438675837646
10.410268419688837+0.13331287378265422i           8.584760685903484E-8                              39957.46154292865                                 0.0021658438675837646
10.410544514854863+0.12574656554781205i           2.3619031115949455E-6                             34766.585472280356                                0.0021658438675837646
10.411240304972198+0.1247215180566723i            5.63376957256177E-6                               33966.233558948246                                0.0021658438675837646
10.414614159668671+0.04475151628195337i           6.430100171177083E-5                              21345.884150631322                                0.0021658438675837646
10.420074065242137+0.062498247430844034i          8.813037716624408E-6                              23537.894478580085                                0.0021658438675837646
10.46885813723382+0.056725796900124754i           3.3165187427500324E-6                             29273.401929121974                                0.0021658438675837646
10.469014298346215+0.059479604036145294i          7.59208109119527E-5                               29218.123311396594                                0.0021658438675837646
10.47967289887724+0.012580822967545143i           9.40724900431411E-8                               36256.71771377125                                 0.0021658438675837646
10.485072514137501+0.0976878200371013i            0.003889143297882124                              29624.60361066933                                 0.0021658438675837646
10.486440282385763+0.11404780190681119i           1.5384062545352354E-5                             30685.516475339835                                0.0021658438675837646
10.486509738643788+0.012915719161137967i          3.830803336775307E-6                              36297.34127097155                                 0.0021658438675837646
10.488372474819602+0.11407581852358512i           2.159629215379888E-4                              30170.451540194772                                0.0021658438675837646
10.50567610274932+0.031015838824780373i           1.0058836375125204E-6                             37569.11338341186                                 0.0021658438675837646
10.506857601403906+0.0895435314279712i            9.455342232674512E-6                              21081.67134482442                                 0.0021658438675837646
10.521035808705713+0.03164109286418746i           1.482697388792474E-5                              32639.901058304014                                0.0021658438675837646
10.52588634068326+0.030176892107073784i           0.0016766706093681142                             32601.73497295689                                 0.0021658438675837646
10.528377738976015+0.07327542382905285i           9.997211839954215E-5                              32676.359159029198                                0.0021658438675837646
10.529455678958662+0.07587349906634584i           2.134222336508367E-4                              35051.18261587142                                 0.0021658438675837646
10.529517583366648+0.055172512727119115i          2.2081897303687673E-4                             30605.438962608874                                0.0021658438675837646
10.531496814924147+0.04595164880939372i           0.01393777612748736                               25046.972202438523                                0.0021658438675837646
10.532158887558994+0.11653633782830322i           3.718921262311464E-4                              35319.14992758353                                 0.0021658438675837646
10.53264742454168+0.07760530541100011i            2.473281771378296E-5                              36174.373916735145                                0.0021658438675837646
10.53364990428465+9.390908710639649E-4i           8.372428440454222E-4                              36602.22546375046                                 0.0021658438675837646
10.53527051838133+0.062468198796518104i           5.6124280627964165E-5                             25063.39828266225                                 0.0021658438675837646
10.538690593495486+0.012318077802248143i          0.20959982855918186                               17958.381327462048                                0.0021658438675837646
10.54173708001214+9.236245219643971E-4i           2.7443105622057234E-5                             36794.194003426644                                0.0021658438675837646
10.54592475313141+0.11762222663305816i            5.218452745700374E-6                              35488.42193184711                                 0.0021658438675837646
10.555504499666872+0.05483750200093232i           0.006433276200111454                              24751.39411278382                                 0.0021658438675837646
10.567962767427472+0.0037496957447507i            2.3131144128632855E-4                             36524.2200733068                                  0.0021658438675837646
10.5758173013689+0.0036595325574554595i           9.9244805530188E-6                                36640.60743937419                                 0.0021658438675837646
10.585398672409108+0.021355512372750598i          7.9120184893195E-6                                36056.41134186883                                 0.0021658438675837646
10.592690135043979+8.166750931345452E-4i          4.811920780003039E-6                              53261.72884302398                                 0.0021658438675837646
10.592859685509012+0.02131191017643301i           7.896241682844687E-6                              36106.66550794367                                 0.0021658438675837646
10.596398162785556+0.006824113914637459i          0.08356085059684296                               16722.537070618222                                0.0021658438675837646
10.601114560934096+0.07193633833693854i           1.7295953483192587E-5                             22535.29210086677                                 0.0021658438675837646
10.60551617368507+0.09455845249611804i            2.1267770295458084E-4                             32656.868799532807                                0.0021658438675837646
10.610780773131031+0.09421865736661682i           4.0278670298497763E-7                             31717.36591470859                                 0.0021658438675837646
10.615636292324467+0.06662076754181777i           2.1552909350393715E-5                             33001.30411187171                                 0.0021658438675837646
10.62530505098667+0.0659950946508804i             9.924866678047053E-7                              33453.49447960682                                 0.0021658438675837646
10.625754867085048+0.003945884134810471i          2.616089884677702E-7                              52594.43235311457                                 0.0021658438675837646
10.625894844039037+0.008312771376137925i          5.5952547587137955E-5                             36212.80958637382                                 0.0021658438675837646
10.633356492665442+0.10151490308116667i           7.091147201204777E-7                              31257.024206332946                                0.0021658438675837646
10.634349257682606+0.008276276563055802i          3.0167143310976848E-6                             36399.71987034767                                 0.0021658438675837646
10.640309785156612+0.10274918894157031i           1.9250599199475157E-5                             30699.22731198135                                 0.0021658438675837646
10.648764650156993+0.007302054821003241i          0.05316527924814089                               16765.532686863724                                0.0021658438675837646
10.655294088670008+0.03596435721363043i           7.553880622540539E-8                              38658.0270055982                                  0.0021658438675837646
10.657280755189678+0.07021754913646877i           1.2400935158041793E-7                             28217.85328772792                                 0.0021658438675837646
10.678398006769141+6.939801078295924E-4i          2.3260374329463006E-6                             37382.16985888922                                 0.0021658438675837646
