% Model:              n169_R19.5_d38_r7_x3.4_y0_ideal.mph
% Version:            COMSOL 6.1.0.282
% Date:               Dec 8 2023, 09:53
% Table:              Table 1 - Global Evaluation 1
% Eigenfrequency (GHz)                            C (1)                                             Q (rad)                                           A (m^2)
9.27512174472218+9.576273400486364E-5i            8.980688111836274E-31                             48427.12280470331                                 0.17316105229433232
9.291703097298083+9.872473331687527E-5i           5.829735573486617E-32                             47058.14317571559                                 0.17316105229433232
9.296015958109589+9.248293093276203E-5i           1.1111741622289196E-31                            50257.513340909056                                0.17316105229433232
9.29830756149546+9.265213144728091E-5i            2.850709566185075E-31                             50178.099024020354                                0.17316105229433232
9.298577003507532+9.450305846829948E-5i           1.2919479914306994E-30                            49196.73177252825                                 0.17316105229433232
9.303798180208792+9.458703815841827E-5i           3.017539165794214E-31                             49180.65098538818                                 0.17316105229433232
9.306485178445822+9.37717675476068E-5i            1.0820394577874965E-31                            49622.56886285037                                 0.17316105229433232
9.318913758138752+9.576376039416125E-5i           5.3781347372902785E-31                            48655.24459957664                                 0.17316105229433232
9.322919565095251+9.737431069067756E-5i           6.537770291438376E-32                             47871.05782163024                                 0.17316105229433232
9.324049442033703+9.71873501973969E-5i            3.0742089863431147E-31                            47968.96173097354                                 0.17316105229433232
9.336012537798146+9.513034148677902E-5i           2.9348519701448493E-31                            49069.08483238341                                 0.17316105229433232
9.336700081963793+9.033723074929302E-5i           5.619780317887299E-31                             51676.42314773691                                 0.17316105229433232
9.339716095299682+9.088360113095077E-5i           2.2157351536925023E-32                            51382.346488988434                                0.17316105229433232
9.34970811976025+9.728601121565701E-5i            1.6202940851032032E-32                            48052.185547624365                                0.17316105229433232
9.354422833408508+9.895872817118268E-5i           6.349213857675305E-33                             47263.763970982545                                0.17316105229433232
9.368081976195658+9.510144500204815E-5i           1.5819118653473762E-32                            49252.600201405774                                0.17316105229433232
9.37276373030528+9.507146187944E-5i               5.037724655598398E-33                             49292.755621214026                                0.17316105229433232
9.37314781376609+9.508616949603757E-5i            3.400517594671763E-33                             49287.15075909062                                 0.17316105229433232
9.376176883327636+9.542186606520537E-5i           6.331748637795763E-33                             49129.62750844283                                 0.17316105229433232
9.37814210020141+9.561175795549561E-5i            1.4162787890450197E-32                            49042.328565288764                                0.17316105229433232
9.383022901500336+9.74704967462569E-5i            1.0099496492616315E-33                            48132.130996665845                                0.17316105229433232
9.392525093437886+9.79057310518528E-5i            1.4289431951716331E-33                            47966.68738439273                                 0.17316105229433232
9.418019707263186+9.857072463429376E-5i           1.161920628926395E-33                             47772.40488141306                                 0.17316105229433232
9.421536078937969+9.727106718434337E-5i           6.848417658912038E-33                             48428.78295894444                                 0.17316105229433232
9.426579979030599+9.665935938147843E-5i           8.52993379655063E-33                              48761.35827696145                                 0.17316105229433232
9.436505364736343+9.668550812854486E-5i           6.154677569286098E-33                             48799.49864361167                                 0.17316105229433232
9.438626125825586+9.57905667591002E-5i            5.651725479272825E-32                             49266.49154782885                                 0.17316105229433232
9.439912809779301+9.511585347728262E-5i           1.7380080379264992E-31                            49622.7353511126                                  0.17316105229433232
9.440092943219604+9.429957863143947E-5i           4.7568294348541194E-30                            50053.23849639776                                 0.17316105229433232
9.4422468622624+9.560473222003946E-5i             2.8335348991322085E-31                            49381.19162912279                                 0.17316105229433232
9.44651482851473+9.885749364141017E-5i            2.2890573027440816E-32                            47777.94556839262                                 0.17316105229433232
9.47487098494897+2.7771627884854284E-4i           0.44022398042121974                               17058.04394370154                                 0.17316105229433232
9.478721418746549+2.767700552885391E-4i           1.9689462908721347E-6                             17123.319751083956                                0.17316105229433232
9.481202433147006+2.7646273024612165E-4i          6.446113028766823E-5                              17146.842158222007                                0.17316105229433232
9.481353694454375+1.0032455029898159E-4i          3.488643587458482E-28                             47252.90549948557                                 0.17316105229433232
9.482078389025538+9.446024635705025E-5i           7.98878561223422E-29                              50190.33881115565                                 0.17316105229433232
9.48437492865686+2.753286134894098E-4i            0.037229580646527045                              17223.23564433893                                 0.17316105229433232
9.48569905592379+9.411543714999826E-5i            2.0789295625395074E-27                            50393.457133564785                                0.17316105229433232
9.486051382475386+2.7526161196280704E-4i          1.0777847235828537E-5                             17230.473233695102                                0.17316105229433232
9.491117850669516+2.737332914629051E-4i           0.0011634350326015046                             17335.932241433242                                0.17316105229433232
9.491390987499438+2.7452285527376704E-4i          0.04741516609776607                               17286.56785067714                                 0.17316105229433232
9.493292723168308+2.7338760491446405E-4i          1.9758855358028595E-6                             17361.830957521484                                0.17316105229433232
9.493673178754968+9.504357440270582E-5i           2.163450863225774E-30                             49943.289766647205                                0.17316105229433232
9.49708713928157+2.729889205754265E-4i            1.6819527400603217E-5                             17394.137253479515                                0.17316105229433232
9.498203879524128+9.654657756483878E-5i           6.745688222685256E-29                             49189.245763674684                                0.17316105229433232
9.498887351913398+2.7183788374861826E-4i          0.005949688547177934                              17471.10208143261                                 0.17316105229433232
9.501906391578084+2.713185837636253E-4i           6.464288083097961E-8                              17510.10600800034                                 0.17316105229433232
9.502806761065646+9.890925569786663E-5i           2.7638191515535347E-28                            48037.50172853614                                 0.17316105229433232
9.504985270090689+2.7188972298255955E-4i          5.222212937641036E-6                              17478.984604958023                                0.17316105229433232
9.505842472776466+2.705960697429906E-4i           0.01639973785214049                               17564.13359877429                                 0.17316105229433232
9.505927371436421+9.642371695945096E-5i           3.019633746371829E-26                             49291.970931237294                                0.17316105229433232
9.507017899397528+9.56106297242384E-5i            1.447565169922414E-27                             49716.86437546658                                 0.17316105229433232
9.507918655785938+2.6955844397065075E-4i          1.1748277121846834E-6                             17635.59707239076                                 0.17316105229433232
9.510594908165684+2.702622478643591E-4i           2.171700147002321E-9                              17594.621088233853                                0.17316105229433232
9.510922333079085+2.692491400138412E-4i           1.7275409510655025E-6                             17661.434536440633                                0.17316105229433232
9.516225870520314+2.6784472549951007E-4i          2.3311087896866286E-6                             17763.943081545945                                0.17316105229433232
9.517850832407644+2.671588807358753E-4i           0.0025397207748536605                             17812.588694562903                                0.17316105229433232
9.519940580109868+2.6747902852073844E-4i          1.1236641818860796E-7                             17795.1743257701                                  0.17316105229433232
9.520568983462443+2.668682236290059E-4i           2.656478437102998E-7                              17837.082188642544                                0.17316105229433232
9.522228724215909+2.6834523364146356E-4i          0.00989419601875863                               17741.994071254045                                0.17316105229433232
