% Model:              n169_R19.5_d38_r7_x3.1_y0_ideal.mph
% Version:            COMSOL 6.1.0.282
% Date:               Dec 8 2023, 09:52
% Table:              Table 1 - Global Evaluation 1
% Eigenfrequency (GHz)                            C (1)                                             Q (rad)                                           A (m^2)
9.539973731362446+9.931967183159744E-5i           1.781455571137782E-30                             48026.10793466783                                 0.17316105978429702
9.544677565571703+9.721439363687507E-5i           2.4939147690917106E-31                            49090.3667122985                                  0.17316105978429702
9.546114395391582+9.855609941930541E-5i           3.9107682296301325E-31                            48429.351416582525                                0.17316105978429702
9.550685511408478+9.658439913370541E-5i           3.2449612665502352E-31                            49441.67533533144                                 0.17316105978429702
9.559428170361645+9.445803684748072E-5i           5.031861870163277E-30                             50600.955082782384                                0.17316105978429702
9.559919319871604+9.450686531588782E-5i           7.905707284224006E-32                             50577.40951575578                                 0.17316105978429702
9.588477740641942+1.0049866692474095E-4i          1.6718029791420248E-26                            47704.00214033253                                 0.17316105978429702
9.588630252332962+2.880382011433034E-4i           0.4482556879249006                                16644.219734819457                                0.17316105978429702
9.59276473172682+2.8704259910981714E-4i           4.150607141879178E-5                              16709.153497929732                                0.17316105978429702
9.595275815474793+2.8682668192948847E-4i          2.1044794019870552E-5                             16726.10953220628                                 0.17316105978429702
9.598929197939322+2.855638260184499E-4i           0.0360025681607824                                16806.476815428203                                0.17316105978429702
9.600463224022134+2.8552453897725746E-4i          5.946093815370092E-7                              16811.475718272282                                0.17316105978429702
9.602842982091186+9.571234361830268E-5i           3.2486952454017305E-30                            50164.62301551895                                 0.17316105978429702
9.603451984330755+9.443113714839972E-5i           4.116481840759975E-32                             50848.4692901035                                  0.17316105978429702
9.603781661542646+9.425964675966123E-5i           6.7719263420305065E-31                            50942.72964705213                                 0.17316105978429702
9.605799728783408+2.8485353982235143E-4i          0.05184686652297664                               16860.44500189469                                 0.17316105978429702
9.606158550319138+2.8391529686240096E-4i          5.709590324429855E-6                              16916.796575229084                                0.17316105978429702
9.60698330283575+9.634246681253907E-5i            2.692536811076108E-31                             49858.00799508866                                 0.17316105978429702
9.608327923442243+2.8356888755865433E-4i          3.4125340239483523E-6                             16941.28796218062                                 0.17316105978429702
9.612000466131597+2.8314544066559646E-4i          6.266868668901506E-7                              16973.10983568036                                 0.17316105978429702
9.614477516430178+2.819359155526113E-4i           0.0055054333963679685                             17050.320757753474                                0.17316105978429702
9.61754112859058+2.814334934557949E-4i            4.413979665388505E-9                              17086.20317611642                                 0.17316105978429702
9.61995084140731+2.822231332895554E-4i            5.193477199489242E-8                              17042.664980751786                                0.17316105978429702
9.621176574312983+1.005646981479985E-4i           6.963395540450175E-29                             47835.255220777726                                0.17316105978429702
9.621561116726932+2.805826714352987E-4i           0.017047289612103205                              17145.17950442559                                 0.17316105978429702
9.624199372417776+2.795327244981778E-4i           4.439234866637544E-8                              17214.29906847656                                 0.17316105978429702
9.626103483714418+2.804163541987375E-4i           8.531147192023846E-7                              17163.448063849424                                0.17316105978429702
9.627147432425073+2.792936449598508E-4i           1.1683762259038697E-6                             17234.312893672333                                0.17316105978429702
9.6328858761773+2.7773362464820746E-4i            7.647238049198798E-8                              17341.451072134143                                0.17316105978429702
9.634818485506466+2.7718920542396533E-4i          0.003497228562466198                              17378.997966833813                                0.17316105978429702
9.636468600715705+2.7738709747844847E-4i          1.753583309766349E-6                              17369.57355907761                                 0.17316105978429702
9.637480278108129+2.767546724060557E-4i           2.270699228878666E-5                              17411.09447426773                                 0.17316105978429702
9.637997447647612+2.785047524523633E-4i           0.009852796078887538                              17302.611226706325                                0.17316105978429702
9.642796734177294+2.7702812257587335E-4i          2.008407686143574E-6                              17403.503244008658                                0.17316105978429702
9.644590577977658+2.750358869067398E-4i           0.00774689967689598                               17532.83107380539                                 0.17316105978429702
9.647267354496497+2.741693924546184E-4i           2.119205384495839E-7                              17593.12561062708                                 0.17316105978429702
9.648687591078854+2.7396850730271744E-4i          1.7442028623301133E-6                             17608.617949939617                                0.17316105978429702
9.649150370338377+2.7395777496186754E-4i          7.22941389609765E-8                               17610.152403733726                                0.17316105978429702
9.652680504116521+2.740129163350972E-4i           0.00436810966426408                               17613.050011408573                                0.17316105978429702
9.654359793721895+9.602499194497211E-5i           3.1247150586718346E-29                            50269.53642584105                                 0.17316105978429702
9.655292968624009+9.605796663384861E-5i           4.033788004591889E-31                             50257.13709593756                                 0.17316105978429702
9.656145299136828+2.7222263406913235E-4i          1.2118930159720518E-6                             17735.250038131475                                0.17316105978429702
9.658936040295284+2.744829641335779E-4i           3.815274117445715E-8                              17594.28213509587                                 0.17316105978429702
9.659451616951923+2.710175983609444E-4i           7.225254008976447E-5                              17820.208947774176                                0.17316105978429702
9.659840984234846+2.718354414635226E-4i           4.2283121677341085E-7                             17767.309805638648                                0.17316105978429702
9.66253571993298+2.70732845780861E-4i             1.9571434994523035E-7                             17844.64828962828                                 0.17316105978429702
9.664743097820232+2.7221257029607585E-4i          1.5164677306727086E-7                             17751.69805020227                                 0.17316105978429702
9.665702852714826+2.700943978640482E-4i           4.469626652328953E-6                              17892.69353189767                                 0.17316105978429702
9.66809116364844+2.6902964473703557E-4i           0.002373408655361075                              17967.94909817664                                 0.17316105978429702
9.67008644845829+2.700965394651588E-4i            8.862863406102151E-10                             17900.666448142292                                0.17316105978429702
9.672143698894354+2.679186069441484E-4i           2.4333379307494885E-7                             18050.025791064552                                0.17316105978429702
9.675009225029303+2.6761608069038437E-4i          1.6117464216844458E-8                             18075.784725696023                                0.17316105978429702
9.675176734211812+2.680740278324348E-4i           1.3159063717166124E-7                             18045.2176865837                                  0.17316105978429702
9.679434140193035+2.664836016360337E-4i           0.0014147948907752214                             18160.906077457097                                0.17316105978429702
9.680213648530714+2.659004272012166E-4i           1.4799372617024853E-9                             18202.203554539647                                0.17316105978429702
9.681792195383965+2.6651929167655113E-4i          5.024882865369582E-6                              18162.89779296844                                 0.17316105978429702
9.682997305698366+2.6920678291818804E-4i          0.00906655400524917                               17983.81082822654                                 0.17316105978429702
9.68499623366201+2.652030347524526E-4i            1.5530759450180242E-4                             18259.087093609083                                0.17316105978429702
9.686792004330686+2.6451523528859085E-4i          9.823738665580803E-7                              18309.960556403614                                0.17316105978429702
9.687189094419065+2.678038152204895E-4i           2.1915105904299537E-6                             18085.85295351907                                 0.17316105978429702
