% Model:              n7_d38_R19.5_r7_h300_lrod300_x2.00_simplified_model_full_pillbox.mph
% Version:            COMSOL 6.1.0.282
% Date:               Mar 8 2024, 15:46
% Table:              Evaluation Group 1 - 
% Eigenfrequency (GHz)                            Form Factor (1)                                   Quality Factor (rad)                              Active Volume (m^3)
9.78545414755725+1.9862035719703103E-4i           3.262241547364396E-7                              24633.07850274123                                 0.0021648084964121673
9.79135277043558+1.2104636217820783E-4i           1.1065557161784309E-7                             40444.16218355392                                 0.0021648084964121673
9.797357066501302+1.4147766227488314E-4i          2.505525466728871E-8                              34624.62071993712                                 0.0021648084964121673
9.803852874882873+1.4254745221078355E-4i          2.549032642756928E-8                              34387.54918642579                                 0.0021648084964121673
9.831357021382868+1.2824082501043267E-4i          1.4820786010155223E-9                             38331.13123313583                                 0.0021648084964121673
9.842379064888567+1.6711006554394494E-4i          3.7831487526307835E-8                             29448.299150733485                                0.0021648084964121673
9.89483310029252+1.616399554555647E-4i            1.8805600012078006E-8                             30607.135963646993                                0.0021648084964121673
9.895131683505841+1.4787725762747313E-4i          6.549742651674934E-7                              33456.748812168335                                0.0021648084964121673
9.905814164658178+1.3099101867553058E-4i          1.397609456299292E-8                              37810.54532064876                                 0.0021648084964121673
9.913791506584857+1.2228694411123536E-4i          1.900610747017974E-7                              40534.4564465914                                  0.0021648084964121673
9.925031478652015+1.4903401415054164E-4i          1.0999731451260859E-6                             33297.3743128409                                  0.0021648084964121673
9.925556771531767+1.3328571695571612E-4i          2.6519671595329655E-8                             37233.636021172024                                0.0021648084964121673
9.930261987629939+1.1759642734466941E-4i          1.0180204572979418E-7                             42221.28523703548                                 0.0021648084964121673
9.95405298665465+1.6573546394795967E-4i           1.3001507163895725E-7                             30029.44293584671                                 0.0021648084964121673
9.957231664293278+1.6983195634080197E-4i          1.5168181949591998E-7                             29314.453235083234                                0.0021648084964121673
9.957806338030315+2.8218060757035203E-4i          9.782068434264534E-6                              17643.88470430851                                 0.0021648084964121673
9.958350487633993+1.7788110117578968E-4i          5.54191532728907E-7                               27991.09233238925                                 0.0021648084964121673
9.959998912761819+1.9723886850186976E-4i          5.4518046515427195E-6                             25248.070506727025                                0.0021648084964121673
9.960943415881903+2.544455686045468E-4i           1.8367322277172394E-6                             19573.319881396594                                0.0021648084964121673
9.961342058004776+2.6567574949144817E-4i          2.2106969319960424E-6                             18746.679822546812                                0.0021648084964121673
9.967398828295435+2.498501532181921E-4i           1.995430099917857E-7                              19946.25353855147                                 0.0021648084964121673
9.967570018765446+2.470956637302202E-4i           5.682701000718895E-7                              20168.95561767497                                 0.0021648084964121673
9.970132476704595+2.3194095054607849E-4i          4.783152459942167E-6                              21492.324951786708                                0.0021648084964121673
9.986911652353168+1.7442726636251687E-4i          2.2581853247947015E-6                             28627.225082869216                                0.0021648084964121673
9.989789559033259+1.5945443349056726E-4i          4.984508378673709E-7                              31324.403747456796                                0.0021648084964121673
9.98989978386081+1.5997622130634804E-4i           1.2378018399061591E-8                             31222.57710946229                                 0.0021648084964121673
9.990623106615864+1.542146340356811E-4i           8.712403004271073E-8                              32391.442476934484                                0.0021648084964121673
9.9912007229808+1.5169978255769078E-4i            2.337849004788529E-7                              32930.33403712401                                 0.0021648084964121673
9.99145225599238+1.5179805037705601E-4i           7.283943340092619E-10                             32909.84448016795                                 0.0021648084964121673
9.992390515292106+1.4729220520718066E-4i          3.605361811412653E-7                              33919.79640569824                                 0.0021648084964121673
10.008237691488334+1.0994944034810318E-4i         3.94566239046032E-8                               45512.40875427675                                 0.0021648084964121673
10.028658308312702+1.257176304348283E-4i          7.726826671060555E-7                              39885.14794142356                                 0.0021648084964121673
10.043140698572453+1.2513114244211174E-4i         1.4132819806869737E-6                             40129.96014830598                                 0.0021648084964121673
10.05424971873973+1.420835181526936E-4i           1.87997105206625E-9                               35380.9775686359                                  0.0021648084964121673
10.069950034413482+1.2282293000220442E-4i         3.1667100276156264E-7                             40993.269736361275                                0.0021648084964121673
10.072205883727415+1.8649659346794097E-4i         4.936547634344205E-6                              27003.225545056976                                0.0021648084964121673
10.07329960417796+1.8391629374862526E-4i          4.081778806771785E-6                              27385.054468219267                                0.0021648084964121673
10.078807288276503+1.2715857571891077E-4i         1.2275135303855893E-8                             39630.35826636628                                 0.0021648084964121673
10.09146227075364+1.4181948893234904E-4i          1.1656515061374152E-8                             35578.043782696535                                0.0021648084964121673
10.104559013253581+1.2372567779233925E-4i         1.5671782560838517E-6                             40834.02392055616                                 0.0021648084964121673
10.11953147897821+1.2584887879416723E-4i          1.4651510822973832E-4                             40204.58767386701                                 0.0021648084964121673
10.121071171876789+1.262220323556333E-4i          8.86807983374897E-4                               40091.82726610019                                 0.0021648084964121673
10.122714603247383+3.1808285613971405E-4i         0.43122913699899296                               15911.570166204829                                0.0021648084964121673
10.135143602806359+3.2389459698403683E-4i         1.6045841055151034E-5                             15645.241171413492                                0.0021648084964121673
10.143344543896122+1.3306551302867952E-4i         4.340619220948408E-6                              38113.59309281357                                 0.0021648084964121673
10.144252433790527+1.956281539768913E-4i          2.869422922312132E-4                              25926.878938110887                                0.0021648084964121673
10.149212890933658+1.2708263208646212E-4i         3.0192868785125905E-8                             39931.0415828368                                  0.0021648084964121673
10.153126947588433+1.4139012408484122E-4i         1.2937649935972014E-8                             35904.14599086409                                 0.0021648084964121673
10.160689294494867+1.2324870445091563E-4i         9.718160175398789E-6                              41219.75764609468                                 0.0021648084964121673
10.165808914510073+1.2190314493286663E-4i         1.8420100144814417E-6                             41695.74201449009                                 0.0021648084964121673
10.171654264114816+3.2412177725607696E-4i         1.3791924339837259E-5                             15690.594852995813                                0.0021648084964121673
10.175758649201619+1.6897798221627056E-4i         1.3523627510858623E-6                             30109.207560734314                                0.0021648084964121673
10.177547950995502+1.6835110799300607E-4i         6.1294912561144985E-6                             30226.63831774786                                 0.0021648084964121673
10.197537251980833+1.9687487715251266E-4i         2.8715149467344137E-7                             25898.011235197413                                0.0021648084964121673
10.198717752864061+1.3380256961304028E-4i         2.3459732969674677E-7                             38110.55004066245                                 0.0021648084964121673
10.199829450747467+1.9445397512490243E-4i         7.996166259484084E-7                              26226.334547649723                                0.0021648084964121673
10.204763441424157+1.3344294042823998E-4i         2.907898075704694E-6                              38235.91043883433                                 0.0021648084964121673
10.20503634477486+1.3342665358397475E-4i          6.91114775750244E-7                               38241.60040290079                                 0.0021648084964121673
10.205153580579674+1.3333408705776232E-4i         8.036520314552501E-7                              38268.58938010342                                 0.0021648084964121673
10.210022702035879+2.9623541216179335E-4i         0.005207670348762308                              17232.444631685885                                0.0021648084964121673
