% Model:              n7_d38_R19.5_r7_h300_lrod299_x0.00_rodtilt0.18deg_realistic_cavity.mph
% Version:            COMSOL 6.1.0.282
% Date:               Mar 20 2024, 11:26
% Table:              Evaluation Group 1 - 
% Eigenfrequency (GHz)                            Form Factor (1)                                   Quality Factor (rad)                              Active Volume (m^3)
10.46915717821682+0.05909364387877019i            1.1819136384857565E-5                             29301.34221917343                                 0.002165848082313708
10.470023698163267+0.056631255363277996i          2.2916157513809796E-6                             29237.592241482347                                0.002165848082313708
10.479855257903964+0.012697265328849539i          2.630213287180769E-7                              36247.606856361694                                0.002165848082313708
10.486888396359305+0.012917079944345603i          9.255226758519864E-9                              36298.63882545651                                 0.002165848082313708
10.48699173065835+0.11313871760716016i            6.007719752597518E-5                              30410.472821362528                                0.002165848082313708
10.488012004408978+0.1123025910631174i            1.8161682287853281E-4                             30183.12651552454                                 0.002165848082313708
10.488476458530506+0.09956661893066468i           0.003589984541800798                              29612.93633664321                                 0.002165848082313708
10.506124399339766+0.031013235237269295i          6.697560089014019E-7                              37570.62704909659                                 0.002165848082313708
10.506647353000307+0.08990862778019586i           2.440569629901533E-5                              21176.713774710614                                0.002165848082313708
10.52096538111141+0.03152291639045533i            2.5436214668729446E-5                             32652.79403162669                                 0.002165848082313708
10.525857768514648+0.03036697095814031i           0.0010292588540890936                             32694.57352117522                                 0.002165848082313708
10.528847334583663+0.07229246352810408i           5.218001881881223E-5                              31778.86458982561                                 0.002165848082313708
10.528865207441418+0.07668924221115263i           1.0497909642241304E-4                             35935.15144585406                                 0.002165848082313708
10.52907474109192+0.0551416276435763i             8.36217522440019E-5                               30705.825314731177                                0.002165848082313708
10.530835260413365+0.0474090799980809i            0.010953907978879632                              25693.586269738087                                0.002165848082313708
10.530884942542976+0.11721659445181169i           3.8312963886339E-4                                35469.1031000942                                  0.002165848082313708
10.531849589470234+0.07759020665597244i           2.793810992809131E-5                              36462.498549573895                                0.002165848082313708
10.53375568690394+9.727970208325267E-4i           2.087968294761703E-4                              36716.60507915215                                 0.002165848082313708
10.533793719745535+0.06166962785052518i           6.61012365461225E-5                               24914.048011682265                                0.002165848082313708
10.541792184689784+9.648198773195329E-4i          4.098059054782821E-6                              36785.9041096315                                  0.002165848082313708
10.545148361014212+0.11693796848563802i           5.6819160766045495E-6                             35674.428313540055                                0.002165848082313708
10.549558398694188+0.05425658136116826i           0.008672333515319366                              25248.17005814114                                 0.002165848082313708
10.555163270969823+0.01036947232639906i           0.24491846068004805                               17445.756630643165                                0.002165848082313708
10.568541808440084+0.003787935446937208i          5.63115829142896E-4                               36500.77792901445                                 0.002165848082313708
10.57644760620092+0.003753435142752637i           1.0194311107609539E-5                             36625.645921848234                                0.002165848082313708
10.585695408607728+0.021287859381316904i          3.620976723629843E-5                              36060.105933924766                                0.002165848082313708
10.593456659364954+0.02117196693074716i           5.044033027715714E-7                              36138.18673854063                                 0.002165848082313708
10.593779987430278+8.760498329113313E-4i          3.065069179274444E-6                              53297.53857161063                                 0.002165848082313708
10.600968047968623+0.07148330755458394i           1.2424879484439145E-5                             22470.549787093787                                0.002165848082313708
10.602621084780834+0.005691485017641096i          0.07576825987233325                               16558.66959608559                                 0.002165848082313708
10.605520100789562+0.09473279967259292i           2.0357404490359594E-4                             32791.92341397759                                 0.002165848082313708
10.60995806280731+0.0948604958983247i             4.730490030104775E-7                              31892.95203016443                                 0.002165848082313708
10.614958554890304+0.06556176569651069i           3.746933038185456E-5                              33132.39444074672                                 0.002165848082313708
10.624564431251212+0.156262284330579i             8.143025504697048E-6                              33370.36264862129                                 0.002165848082313708
10.624976682261778+0.06631348509223405i           2.0921045035726004E-7                             33529.7571254135                                  0.002165848082313708
10.625921922789713+0.00844494643205696i           2.606321725775062E-5                              36179.076718298944                                0.002165848082313708
10.626844454096037+0.004023232499871562i          3.5933125420702048E-9                             52578.44683888837                                 0.002165848082313708
10.6334751154269+0.10292932784757715i             8.822028931609758E-7                              31243.916041233286                                0.002165848082313708
10.634045151873709+0.008254696718448933i          3.4718271604557124E-6                             36412.73200015784                                 0.002165848082313708
10.639490833566366+0.10313992846634353i           5.351811289227335E-6                              30773.259731706275                                0.002165848082313708
10.655674863586784+0.03596947111905746i           6.064304814753136E-7                              38657.79730705304                                 0.002165848082313708
10.655791961694602+0.006909577585885363i          0.0462334923075314                                16691.892218773824                                0.002165848082313708
10.656149583895779+0.07052273388623216i           4.718714612084564E-7                              28240.666364813864                                0.002165848082313708
10.678233962196341+7.352333046485064E-4i          3.947625048181979E-6                              37376.298247857114                                0.002165848082313708
10.682630359301154+0.009148200805552184i          3.864117573275709E-7                              52152.399840909726                                0.002165848082313708
10.693814970521851+0.06109937170173331i           3.7853461166677304E-4                             26259.900864215815                                0.002165848082313708
10.697602138398144+0.12735720857061714i           2.2789959726310613E-4                             29888.970186934126                                0.002165848082313708
10.697969930271919+0.05578647548237574i           1.0305839447130114E-4                             26007.485030274223                                0.002165848082313708
10.69917823216211+0.05693724806365714i            1.6531948540806008E-5                             25603.339798789984                                0.002165848082313708
10.708026854712786+0.01915122522906615i           1.0320227800144195E-4                             33616.8245390039                                  0.002165848082313708
10.708651344345972+0.028523635883025082i          1.8850414790279806E-4                             31114.905656137933                                0.002165848082313708
10.712368450695816+0.002543695330828225i          3.83615649535258E-5                               37008.105425316964                                0.002165848082313708
10.71400932842032+0.028476438688203588i           1.4924456876157678E-5                             34723.41436755692                                 0.002165848082313708
10.715801305128233+0.019570942300690217i          1.737149877903626E-5                              34128.52001655811                                 0.002165848082313708
10.716856235920977+0.028993239209134634i          1.719744758645772E-5                              32230.436820993895                                0.002165848082313708
10.719599651696532+0.02828238464598843i           6.6171773701756024E-6                             35651.98997500847                                 0.002165848082313708
10.724747704970417+0.019577781570926083i          0.0011567139964132331                             19266.209459569098                                0.002165848082313708
10.732113530006476+0.049239623400650225i          1.2077178500431795E-4                             26227.18904162891                                 0.002165848082313708
10.746480374060319+0.0053051774174544776i         0.0021981664965327282                             16715.999342519375                                0.002165848082313708
10.759287271384311+0.01621458546480105i           4.0154388092396575E-7                             51237.481084904575                                0.002165848082313708
