% Model:              n7_d38_R19.5_r7_h300_lrod299_x0.00_rodtilt0.02deg_realistic_cavity.mph
% Version:            COMSOL 6.1.0.282
% Date:               Mar 20 2024, 11:29
% Table:              Evaluation Group 1 - 
% Eigenfrequency (GHz)                            Form Factor (1)                                   Quality Factor (rad)                              Active Volume (m^3)
10.468177282765955+0.059601800743924974i          2.6235930290801824E-6                             28388.16232138254                                 0.0021658813855904143
10.468951632839229+0.057295432239312744i          1.0459648607924298E-6                             28419.13525456916                                 0.0021658813855904143
10.481046343256605+0.012773132902449788i          9.549719978237861E-8                              36117.77163321507                                 0.0021658813855904143
10.486442567703442+0.11438397782457736i           1.5118828478568912E-5                             29239.329428102534                                0.0021658813855904143
10.486756987711507+0.11552288735032923i           1.360709607056249E-5                              29146.665922302338                                0.0021658813855904143
10.488106220426033+0.01298136369718264i           8.031933158721673E-7                              36085.05702738703                                 0.0021658813855904143
10.496423264050232+0.1022831009708504i            0.0025235685779326647                             29590.204272887764                                0.0021658813855904143
10.505560147336759+0.09037783243979884i           5.2472884015412164E-5                             20729.51952811825                                 0.0021658813855904143
10.507739532520448+0.031011668550126197i          3.002371754381915E-8                              37332.6074895614                                  0.0021658813855904143
10.519964872535487+0.030971694057348547i          1.4698560534258859E-6                             30666.423223258254                                0.0021658813855904143
10.524800946809753+0.029899641428893408i          8.445666721429596E-5                              31024.98503457139                                 0.0021658813855904143
10.527558228765233+0.07753869046157166i           1.7714867892451624E-6                             35677.071618222944                                0.0021658813855904143
10.528466000775383+0.07306439341710878i           3.4063049470621205E-5                             32300.237229941362                                0.0021658813855904143
10.529415527920246+0.054472423521854225i          1.773930528222192E-5                              30757.758120028593                                0.0021658813855904143
10.529970109568662+0.06257516889375936i           2.9527410620019517E-5                             22073.436771336652                                0.0021658813855904143
10.530872894440899+0.0779689306703595i            1.9162291899788146E-6                             36205.92687290516                                 0.0021658813855904143
10.53268858708574+0.0615909649322522i             8.340305363770367E-6                              23046.705234085814                                0.0021658813855904143
10.534682729984377+0.0010096982198698045i         6.463287556214234E-7                              36753.15832046547                                 0.0021658813855904143
10.538072589841706+0.11845280704907322i           1.5446717247020417E-5                             32054.38922214291                                 0.0021658813855904143
10.542423011189907+0.001022888383770168i          2.4342957756909467E-8                             36759.722580138245                                0.0021658813855904143
10.543838765721333+0.05062692837332988i           0.007338978133261885                              27716.198854322487                                0.0021658813855904143
10.546198111832767+0.11821462068957815i           1.2323961144598242E-5                             32254.12016380514                                 0.0021658813855904143
10.569259010251628+0.0036866574005157225i         5.707966855917368E-7                              36565.530570582785                                0.0021658813855904143
10.577151884519962+0.0037492327500264163i         8.374215564240684E-7                              36556.24223068503                                 0.0021658813855904143
10.587048626742774+0.02133757397633918i           2.5737557804162753E-7                             35959.67562375057                                 0.0021658813855904143
10.594562554327029+0.021152993069977036i          4.350886848348513E-6                              36022.40731608288                                 0.0021658813855904143
10.597655179652108+0.0011505949949395526i         2.2719795497514667E-6                             49874.38653972837                                 0.0021658813855904143
10.600451751020296+0.07194904542225823i           3.10919325753809E-7                               22357.040288069315                                0.0021658813855904143
10.60639515458383+0.0012272505923927104i          0.4497695242863627                                13776.377689737697                                0.0021658813855904143
10.609465761006696+0.09671894352170068i           3.0607457302421144E-7                             28950.88395719646                                 0.0021658813855904143
10.610297406210433+0.09627209105294746i           2.0917389565120523E-6                             28062.0912664404                                  0.0021658813855904143
10.615256347574945+0.06533700737087181i           1.5214518044326609E-5                             30282.066240989057                                0.0021658813855904143
10.621333753029704+0.15430814104920448i           2.3043849750091273E-9                             32421.508140803293                                0.0021658813855904143
10.62356422943379+0.06606841702585037i            1.754367703208955E-8                              30408.139017566882                                0.0021658813855904143
10.624509949033675+0.1584857565604552i            3.0593093832214143E-6                             32461.326929133393                                0.0021658813855904143
10.627873985280154+0.008310778952539434i          3.2306248093164597E-6                             36171.84418212554                                 0.0021658813855904143
10.63120921816196+0.004180263900130756i           5.867834327378498E-8                              49540.017511401165                                0.0021658813855904143
10.635464322493313+0.008336033346690287i          2.2071206299491536E-6                             36176.238958571244                                0.0021658813855904143
10.63573649197684+0.10407356681925528i            2.4061428184145432E-6                             29878.723172664257                                0.0021658813855904143
10.63750198500011+0.10355125385034868i            2.5547494397674507E-7                             29588.252099319332                                0.0021658813855904143
10.637541884929645+0.0031556152434696586i         2.8614420774965117E-5                             14014.922413944618                                0.0021658813855904143
10.657072277791448+0.07039064950724316i           4.5525672808639313E-7                             28013.549317997564                                0.0021658813855904143
10.657200613720542+0.03602850354745459i           6.126465467111343E-8                              38403.67153852388                                 0.0021658813855904143
10.677870469867797+7.363277513744875E-4i          8.963147489851549E-5                              37276.177562891105                                0.0021658813855904143
10.687107530556572+0.009355670438813753i          7.430997394867155E-7                              48920.3552867604                                  0.0021658813855904143
10.688017279495114+0.056973767947104466i          4.2275515872254246E-4                             24341.27725073831                                 0.0021658813855904143
10.692080819048408+0.004677255106523498i          0.046629115768795484                              14264.651857726187                                0.0021658813855904143
10.694244282718419+0.12708443960804713i           3.779998287650492E-4                              29593.358423480528                                0.0021658813855904143
10.699384802566286+0.05737925463681901i           1.9842864596497472E-5                             25597.680930636216                                0.0021658813855904143
10.700780067723034+0.05717016903375789i           4.972470414439681E-7                              25486.146039837837                                0.0021658813855904143
10.706393562932796+0.02966408891215961i           1.7643655421325798E-5                             31820.07587887758                                 0.0021658813855904143
10.711549872732421+0.018739662711263434i          1.427797621638654E-5                              34355.65442962121                                 0.0021658813855904143
10.712098838506149+0.0024711645305164603i         7.520513150636024E-5                              37119.84617777026                                 0.0021658813855904143
10.713853776177714+0.030595435169318036i          1.3731203843565602E-5                             31952.766732215256                                0.0021658813855904143
10.71447923047557+0.028807173269543757i           4.999969741758317E-6                              35294.133453892646                                0.0021658813855904143
10.718878662691035+0.018156449071064437i          8.018037815369791E-6                              34609.229862625805                                0.0021658813855904143
10.720701899673827+0.028486838673524823i          5.181981779301226E-7                              35569.0728993141                                  0.0021658813855904143
10.733377629491251+0.06026887809809407i           8.296301874735393E-4                              27092.158155410776                                0.0021658813855904143
10.76379030845811+0.01644193170085895i            6.416169961831341E-9                              48254.53878257863                                 0.0021658813855904143
10.765686505561858+0.008769065860809232i          5.661363986242213E-5                              15466.282037155876                                0.0021658813855904143
