% Model:              n7_d38_R19.5_r7_h300_lrod299_x0.00_rodtilt0.24deg_realistic_cavity.mph
% Version:            COMSOL 6.1.0.282
% Date:               Mar 20 2024, 11:25
% Table:              Evaluation Group 1 - 
% Eigenfrequency (GHz)                            Form Factor (1)                                   Quality Factor (rad)                              Active Volume (m^3)
10.337069699388103+0.00377957845709186i           9.831922830778524E-8                              35896.41444764438                                 0.002165835975982656
10.338149546585948+0.05482822363508008i           4.4617151765889586E-5                             20808.46385494354                                 0.002165835975982656
10.345517136645876+0.0037068580073137815i         3.5286619869994605E-8                             35941.476859782764                                0.002165835975982656
10.352984260860758+0.059698821902937974i          3.3695387152594314E-6                             20972.952785648096                                0.002165835975982656
10.365885936686633+0.10616429467222162i           4.521749778697243E-6                              25406.65453395929                                 0.002165835975982656
10.370051617605212+0.0217544852658456i            1.2232274778341645E-8                             37091.13829544089                                 0.002165835975982656
10.377235132230846+0.060587753016611116i          8.481892910855046E-4                              32210.733097084012                                0.002165835975982656
10.390736250186944+0.06315917185181553i           3.5414029870493215E-5                             32440.225540057236                                0.002165835975982656
10.393298916444843+0.05912399567390595i           0.005144332802163949                              24938.54839235798                                 0.002165835975982656
10.396684836625472+0.007958662063233597i          1.7438455359791598E-6                             35896.46241897074                                 0.002165835975982656
10.397366675535384+0.10252394302866735i           7.103660033379548E-6                              28263.889540936903                                0.002165835975982656
10.404776414291128+0.007906879662938534i          4.3277993871719775E-8                             35930.25326186275                                 0.002165835975982656
10.409742369685382+0.12370010768416673i           1.4298194839629705E-5                             33758.638891195136                                0.002165835975982656
10.410780364435299+0.12623497531252253i           1.8373779670809916E-6                             35310.66598472018                                 0.002165835975982656
10.410791140623653+0.13302629047706405i           2.732272370414165E-7                              39706.94626103729                                 0.002165835975982656
10.413587705025709+0.044711919523137605i          1.1891527903613875E-4                             21248.12775105145                                 0.002165835975982656
10.419942967539203+0.0628159758941753i            4.03153982173467E-5                               23123.706733564584                                0.002165835975982656
10.468341990861212+0.0597190588849766i            1.3492801133337102E-4                             29262.932301077555                                0.002165835975982656
10.46927673964997+0.05746268048374207i            1.6879149566385822E-5                             29330.97924714204                                 0.002165835975982656
10.478106190791264+0.012644249732053147i          5.845959787995286E-6                              36209.87340259481                                 0.002165835975982656
10.480347824670197+0.09379730065062712i           0.004458202767690413                              29398.60460444362                                 0.002165835975982656
10.485650954836085+0.012817124071279528i          6.180097096761796E-6                              36272.67683859047                                 0.002165835975982656
10.48725818244449+0.11274486409361381i            1.540342172256763E-4                              30337.664463009216                                0.002165835975982656
10.487387804272998+0.11217570711875617i           1.9556239854801684E-4                             30322.47515842635                                 0.002165835975982656
10.500782977749141+0.011981761596764676i          0.1899966534298884                                18198.816848984723                                0.002165835975982656
10.504604233088386+0.03103190566418751i           5.042650021926968E-7                              37550.76836247919                                 0.002165835975982656
10.506137009081883+0.08969973037769836i           1.937715529240528E-6                              21357.1692054848                                  0.002165835975982656
10.518632863149193+0.03225675939511635i           5.384500245809683E-6                              32724.92664607628                                 0.002165835975982656
10.52556101040049+0.030207548360819413i           7.984273691900451E-4                              32358.460204484643                                0.002165835975982656
10.52673668766642+0.04722161951454621i            0.008360481919978086                              24583.821836717274                                0.002165835975982656
10.526996083797496+0.07320945949543992i           7.29707788119238E-5                               32733.773944840148                                0.002165835975982656
10.52767831582405+0.11582582258787483i            2.844630623795164E-4                              35358.52463237601                                 0.002165835975982656
10.52848483548754+0.05483945148374043i            8.846270792674597E-5                              30810.63256454953                                 0.002165835975982656
10.53037111575833+0.07538840516932212i            1.9033423792860397E-4                             34634.48657743451                                 0.002165835975982656
10.531823130750912+8.185444625843517E-4i          1.1577448775476829E-4                             36709.15075735105                                 0.002165835975982656
10.53227420397218+0.07733403836680872i            7.888791350923368E-6                              35547.68547094551                                 0.002165835975982656
10.533506804555044+0.06375511497050042i           5.2378956537312986E-5                             25217.19234952054                                 0.002165835975982656
10.539974284206881+8.716199041982403E-4i          5.905296214267746E-6                              36791.84706902093                                 0.002165835975982656
10.54726455769633+0.11796037806713562i            2.633907158092648E-6                              35437.018671125814                                0.002165835975982656
10.560137534613165+0.0526297341051005i            0.0021008991796456944                             24157.35512823114                                 0.002165835975982656
10.566510904461358+0.0036298585642729254i         5.855324814507398E-4                              36385.4738840757                                  0.002165835975982656
10.574322518237029+0.003631471892956919i          4.68391435149124E-5                               36636.94953782628                                 0.002165835975982656
10.578341125043707+0.010248982088758506i          0.08226543585392682                               17334.628699464913                                0.002165835975982656
10.584140448549386+0.021320717553261707i          2.1094317691248235E-6                             36023.55439789093                                 0.002165835975982656
10.589904717100628+6.977849705363952E-4i          2.2955072703821277E-6                             53157.64559995821                                 0.002165835975982656
10.59181294219851+0.021247590402268035i           2.559922846095335E-6                              36085.98326301438                                 0.002165835975982656
10.60080665035244+0.07105006083906333i            2.8853107370858214E-6                             22357.62482806326                                 0.002165835975982656
10.602196750105849+0.09365561899314086i           3.2406232487856677E-4                             32213.205984674267                                0.002165835975982656
10.608696746112088+0.09355996275813824i           1.2498953260783394E-6                             31529.816597047124                                0.002165835975982656
10.61569513267056+0.06615958684255532i            2.212894194503154E-5                              32910.06015390773                                 0.002165835975982656
10.623133861161088+0.0037997913431684735i         3.6296177118832584E-6                             52510.89947690625                                 0.002165835975982656
10.624721504407793+0.008338495067893232i          3.0698903172031287E-4                             36037.53099243729                                 0.002165835975982656
10.625354708523872+0.06635993013980068i           9.452526338042509E-6                              33349.902609290526                                0.002165835975982656
10.630749942491525+0.09968456430381178i           8.608881871123788E-7                              30976.008523380577                                0.002165835975982656
10.632360149922576+0.008166671480079773i          0.001123269970209845                              35766.00731547157                                 0.002165835975982656
10.633420855021825+0.008205464308334454i          0.06690204415091469                               17101.35663611013                                 0.002165835975982656
10.64037130984738+0.10207458950149163i            1.1799747093745851E-5                             30548.62581890618                                 0.002165835975982656
10.653479712337855+0.07021192143080665i           1.873116816778077E-6                              28522.421238805593                                0.002165835975982656
10.654266551866577+0.0359412835339456i            5.51324734889613E-8                               38634.701538010755                                0.002165835975982656
10.67323364593919+0.007027708069722899i           0.004433501556667067                              17380.764263529854                                0.002165835975982656
