% Model:              n1_R19.5_d38_r6.98.mph
% Version:            COMSOL 6.1.0.282
% Date:               Mar 21 2024, 17:29
% Table:              Table 1 - Global Evaluation 1
% Eigenfrequency (GHz)                            C (1)                                             Q (rad)                                           A (m^2)
1.862716076482671E-8+2.9465922081798175E-6i       8.512239378895805E-25                             7.536186823412168E9                               0.0010415337969848352
5.966263737706777E-7-2.1749059768877234E-6i       4.4399022452058E-25                               7.246676236683177E10                              0.0010415337969848352
1.4911661394730204E-6+1.2273428650300288E-6i      5.378546454906051E-25                             7.093019033822208E9                               0.0010415337969848352
2.155307812431122E-6-5.5070569865309154E-8i       5.044658704605741E-25                             1.16192039356426E10                               0.0010415337969848352
4.481823857788252E-5+3.93064090345232E-5i         3.356231331868658E-19                             1921429.6746451806                                0.0010415337969848352
3.6971938690488084+6.797394821656563E-5i          2.918916573920976E-32                             29039.767115447317                                0.0010415337969848352
3.6971943652213377+6.797397656174137E-5i          8.921127672519106E-33                             29039.7583274908                                  0.0010415337969848352
7.0998545715420045+1.0995053848510437E-4i         1.035297999913155E-31                             32507.79722939478                                 0.0010415337969848352
7.0998800043315535+1.0995108076888043E-4i         1.1321983427880013E-33                            32507.748911397175                                0.0010415337969848352
10.14816447736172+1.5148041021796082E-4i          7.162947296724831E-33                             33502.915132997536                                0.0010415337969848352
10.148168767324355+1.514806327775681E-4i          1.2180489450779475E-34                            33502.880015684255                                0.0010415337969848352
11.823061568095117+2.595890621316924E-4i          0.801523248159468                                 22772.149723794337                                0.0010415337969848352
12.410315664731632+2.389398056797502E-4i          5.535214519441294E-32                             25968.831766069576                                0.0010415337969848352
12.41114215161497+2.3903948878067327E-4i          2.6386795629159717E-10                            25959.73006480201                                 0.0010415337969848352
12.411172292393248+2.3904426275662592E-4i         1.5419023438657547E-10                            25959.274623401543                                0.0010415337969848352
12.971295777704686+1.942518170869125E-4i          8.112589219255193E-33                             33385.50192793086                                 0.0010415337969848352
12.971389006148504+1.9425612187329316E-4i         2.0456706401741288E-32                            33385.00160851947                                 0.0010415337969848352
13.207318648967048+2.3955886852345057E-4i         9.089960409944964E-33                             27562.840993083675                                0.0010415337969848352
13.20733237439316+2.39564293199217E-4i            7.224278251448041E-33                             27562.24542262557                                 0.0010415337969848352
14.002204483591681+1.961107422683344E-4i          7.80708928363219E-14                              35687.2965124681                                  0.0010415337969848352
14.002378443053207+1.9612367490969988E-4i         8.941104424447717E-11                             35685.38390069754                                 0.0010415337969848352
15.413665218055483+2.3454681478304908E-4i         1.2863965547685996E-32                            32814.43643655964                                 0.0010415337969848352
15.413755754765722+2.345616588822427E-4i          2.1827216713541248E-32                            32812.54952878999                                 0.0010415337969848352
15.687781413542496+2.375061169881794E-4i          4.908574451150293E-33                             32972.264928424236                                0.0010415337969848352
15.68781521848977+2.3751243054878683E-4i          5.894679039672757E-33                             32971.458238914136                                0.0010415337969848352
16.243505723992442+1.5820150536391663E-4i         1.7856614378228685E-10                            51218.76988517566                                 0.0010415337969848352
16.24368204094842+1.5821948630351647E-4i          9.874216682025678E-11                             51213.492316418655                                0.0010415337969848352
18.354025268972325+2.8177557621029585E-4i         1.3347452733352197E-34                            32358.655717766116                                0.0010415337969848352
18.35417306714866+2.817935411446665E-4i           2.2975643829243557E-33                            32356.841147345058                                0.0010415337969848352
18.529724365692726+2.1783165762773136E-4i         1.2300093523748403E-31                            42239.050724721135                                0.0010415337969848352
18.529918864304104+2.178560093831234E-4i          2.2329297891602867E-32                            42234.75081632166                                 0.0010415337969848352
18.831133012790193+1.3560949399718926E-4i         4.666990116780759E-11                             68896.46755847451                                 0.0010415337969848352
18.83152074278977+1.356394386077924E-4i           4.222698131049292E-10                             68882.60036575022                                 0.0010415337969848352
20.99301794737162+3.278974594272923E-4i           1.2742832422117584E-32                            31527.388227440726                                0.0010415337969848352
20.9931451807419+3.2791120824104253E-4i           1.192833286920696E-30                             31526.240832141586                                0.0010415337969848352
21.575244444134697+1.269190558986806E-4i          1.9253139599900998E-10                            83501.71255178885                                 0.0010415337969848352
21.576335603923464+1.2697498443350647E-4i         1.0497377642380459E-10                            83468.74469920117                                 0.0010415337969848352
21.974502206852897+1.9720919396060756E-4i         1.2051463637422855E-31                            54633.204646940176                                0.0010415337969848352
21.974846199915323+1.9723616758310808E-4i         8.865064171535287E-31                             54626.49908503137                                 0.0010415337969848352
23.61440099039525+3.765652633980543E-4i           3.38031489626902E-28                              30482.483249809717                                0.0010415337969848352
23.615063550500444+3.766613724127263E-4i          1.3231170062836057E-29                            30475.443378680066                                0.0010415337969848352
23.884449639115367+3.747391420812055E-4i          0.012116395371250827                              30932.20974758653                                 0.0010415337969848352
24.199783264217835+3.6428164749695215E-4i         1.8515306067058766E-29                            32178.71697345152                                 0.0010415337969848352
24.215451470881693+3.6571023611800004E-4i         1.1629350106376145E-8                             32070.6653268554                                  0.0010415337969848352
24.21707984180715+3.657808704417945E-4i           9.844328760424747E-9                              32066.305831382568                                0.0010415337969848352
24.377063610673712+1.276683368459899E-4i          2.153643927361027E-9                              92388.60011396729                                 0.0010415337969848352
24.378776422796964+1.2769910734963807E-4i         8.30047234080417E-10                              92371.8338836116                                  0.0010415337969848352
24.57146543930915+3.683783662016799E-4i           1.2312928458050861E-29                            32234.169033454986                                0.0010415337969848352
24.572737784710604+3.6841911290520324E-4i         5.567376118309409E-31                             32232.010019408895                                0.0010415337969848352
25.187293496440404+3.4109765158176885E-4i         1.440793680689891E-10                             35539.79260597103                                 0.0010415337969848352
25.188161119292058+3.4125325406646374E-4i         7.740936479946764E-9                              35524.60082360415                                 0.0010415337969848352
25.36038144710544+1.8637654900547788E-4i          7.61735556027398E-27                              65412.889922228394                                0.0010415337969848352
25.361252027709742+1.8639144765300613E-4i         1.1671140101948279E-27                            65409.51214300525                                 0.0010415337969848352
25.678975262779197+3.80086509221358E-4i           1.370968840885416E-25                             32405.383580146212                                0.0010415337969848352
25.679619574047923+3.80017185668748E-4i           4.773906847119508E-25                             32411.959543804995                                0.0010415337969848352
