% Model:              n7_d38_R19.5_r7_h300_lrod299_x0.00_rodtilt0.24deg.mph
% Version:            COMSOL 6.1.0.282
% Date:               Mar 20 2024, 11:36
% Table:              Evaluation Group 1 - 
% Eigenfrequency (GHz)                            Form Factor (1)                                   Quality Factor (rad)                              Active Volume (m^3)
10.336052242860848+0.003663149444217795i          2.54824407250334E-6                               35915.961225176834                                0.002169799375372713
10.344481247575231+0.003629360960434928i          2.968798489085595E-7                              35948.33094963144                                 0.002169799375372713
10.354111307360315+0.06129931846730249i           5.165531759941467E-6                              21927.544311462465                                0.002169799375372713
10.369446028434863+0.02182746225425728i           1.2399123168261825E-7                             36842.33288787672                                 0.002169799375372713
10.376337296827835+0.06324200115934825i           8.015838534343771E-4                              31891.73658502088                                 0.002169799375372713
10.387766223789482+0.10544997751862456i           3.5656466734643426E-6                             33496.55874074689                                 0.002169799375372713
10.39279179716246+0.0631436766117255i             6.210126494791682E-6                              30914.048294373337                                0.002169799375372713
10.395290349114951+0.00789384157715753i           6.119960358601878E-6                              35878.25913055861                                 0.002169799375372713
10.403659919664321+0.007862011188568573i          6.96731665797431E-6                               35891.24073753681                                 0.002169799375372713
10.405225762154206+0.06100345664183185i           0.004570236785735182                              22302.68393651872                                 0.002169799375372713
10.405246096817589+0.04654376863062557i           4.356956932369014E-4                              22380.432512638996                                0.002169799375372713
10.407693971129858+0.12625893382534856i           1.4775604235511541E-6                             33427.02606447479                                 0.002169799375372713
10.409192887514703+0.135230264068645i             4.2839166356256274E-7                             39847.99790810484                                 0.002169799375372713
10.409952035409866+0.12298096439722109i           1.0001492923596439E-6                             33581.55282129791                                 0.002169799375372713
10.418455502632485+0.0037142964671591583i         0.30954570942982595                               14600.733891898555                                0.002169799375372713
10.419213006735669+0.06748919030929941i           1.873865551384066E-5                              22399.053436283844                                0.002169799375372713
10.433567970295625+0.0029458860184899105i         0.006301722969121644                              14721.99404901486                                 0.002169799375372713
10.465021275163462+0.05610402982591156i           3.520361920129211E-7                              28572.677153512002                                0.002169799375372713
10.465741114780826+0.06073360155930804i           1.951771856654148E-4                              28390.1738520034                                  0.002169799375372713
10.470476640430224+0.10281319657952936i           0.0017356829251769703                             29679.755266929606                                0.002169799375372713
10.477066464161734+0.012616797227306114i          3.522016498487707E-7                              36014.74941246229                                 0.002169799375372713
10.483385700359609+0.11156754873877765i           4.6745784259515E-6                                29884.417575396594                                0.002169799375372713
10.484666979794719+0.012742691615932963i          8.695090699677573E-7                              36075.22100152825                                 0.002169799375372713
10.48904832267904+0.11232193973738583i            3.877126910593802E-4                              29281.905558907838                                0.002169799375372713
10.493214239824278+0.007957946756096476i          0.003741222047158373                              15202.548289009836                                0.002169799375372713
10.501094348225072+0.08855604549425979i           2.521390488963429E-5                              21978.682608327545                                0.002169799375372713
10.504182927104859+0.03109933161916386i           2.8164878908125056E-7                             37274.127672427                                   0.002169799375372713
10.514719758955893+0.04538240647544353i           7.367066055698668E-4                              26468.893166614755                                0.002169799375372713
10.518753918626757+0.032922101719380766i          8.792822430983959E-8                              31057.089400704303                                0.002169799375372713
10.525298691494578+0.03144746108539566i           2.227048845733978E-5                              30742.560693582564                                0.002169799375372713
10.526696130918287+0.0724556252496556i            1.5621779818683688E-6                             32219.38397466372                                 0.002169799375372713
10.528137471033551+0.060453802288213274i          2.3401181679587373E-6                             25074.529332672104                                0.002169799375372713
10.528308475591947+0.057067824844676145i          3.10311585266157E-7                               29301.503623872693                                0.002169799375372713
10.52881339622194+0.07732418606711135i            2.4614448395690426E-5                             35164.73190513742                                 0.002169799375372713
10.530512780536272+8.106646837460258E-4i          1.3331993722591642E-6                             36703.95539178593                                 0.002169799375372713
10.531624103557233+0.07931800634571576i           5.700452900794772E-6                              36035.64401783038                                 0.002169799375372713
10.53377620601569+0.12035509836159576i            1.58076706833326E-4                               32956.53028574185                                 0.002169799375372713
10.539191089742534+8.142569061205512E-4i          1.0002600571085344E-7                             36753.99989471775                                 0.002169799375372713
10.546858963197845+0.11777846042007246i           1.8203780662525317E-6                             32752.81505695848                                 0.002169799375372713
10.56031563790799+0.008058962638688938i           5.351389480479174E-5                              15467.019984686971                                0.002169799375372713
10.565244886366024+0.0036102841200290983i         1.272675657520621E-6                              36114.57578655335                                 0.002169799375372713
10.565276811691323+0.06031402377243445i           1.5317945092166335E-4                             24620.754776045203                                0.002169799375372713
10.574078811263131+0.0036268823740828434i         1.518403701594607E-8                              36584.34925735033                                 0.002169799375372713
10.582710661287448+0.021562054959429842i          2.799608541993115E-6                              35886.13257690399                                 0.002169799375372713
10.590972483463718+0.021376446822525215i          9.924470047166746E-8                              35941.523539055284                                0.002169799375372713
10.591993373022175+0.0012543595290999035i         2.0347893455201637E-8                             49661.480823370985                                0.002169799375372713
10.594423900230193+0.09592372784218667i           3.1709785517808093E-4                             30426.815061892183                                0.002169799375372713
10.596291553280622+0.10138974884927755i           8.104457873493239E-7                              30689.6679416331                                  0.002169799375372713
10.601295348886671+0.0718562745780844i            1.8678537980493222E-5                             22369.21191303116                                 0.002169799375372713
10.615606712754412+0.06573251666211379i           3.2986248344232906E-5                             30612.82492958113                                 0.002169799375372713
10.622987631475855+0.008322755872951657i          4.086568862362845E-6                              36165.97892776445                                 0.002169799375372713
10.623931811300311+0.004530235701044178i          7.150097460611487E-9                              48948.10425753691                                 0.002169799375372713
10.627097671363577+0.06606454814246109i           1.6849646821724698E-6                             30966.776336140938                                0.002169799375372713
10.627617401334815+0.0958974574913818i            5.959341346750967E-7                              29674.205039287906                                0.002169799375372713
10.631945259924192+0.008093417201500738i          4.169808962596705E-8                              36402.07653478587                                 0.002169799375372713
10.63483310285094+0.0971758195582969i             1.1062592012610166E-4                             29672.27634244255                                 0.002169799375372713
10.635109719809899+0.07387507552029889i           1.6902308958385926E-6                             30971.37157916827                                 0.002169799375372713
10.653604197315023+0.03606138304351995i           2.252304653415393E-8                              38356.20348430908                                 0.002169799375372713
10.662829939005716+0.006582192363484637i          0.0056958887083223735                             15091.76350691034                                 0.002169799375372713
10.670115052195989+0.006768514460293379i          1.4927227220041245E-4                             16563.118749070014                                0.002169799375372713
